/*--------------------------------*- C++ -*----------------------------------*\
| =========                 |                                                 |
| \\      /  F ield         | OpenFOAM: The Open Source CFD Toolbox           |
|  \\    /   O peration     | Version:  v1612+                                |
|   \\  /    A nd           | Web:      www.OpenFOAM.com                      |
|    \\/     M anipulation  |                                                 |
\*---------------------------------------------------------------------------*/
FoamFile
{
    version     2.0;
    format      ascii;
    class       surfaceScalarField;
    location    "0.005";
    object      alphaPhi;
}
// * * * * * * * * * * * * * * * * * * * * * * * * * * * * * * * * * * * * * //

dimensions      [0 3 -1 0 0 0 0];

internalField   nonuniform List<scalar> 
816
(
5.11467e-09
2.87828e-09
-1.33564e-08
-1.16495e-08
5.76987e-10
-2.5236e-09
-7.8515e-09
-9.8577e-09
-1.9646e-08
-2.07454e-09
-9.26615e-09
-4.74176e-09
-2.37077e-08
-1.27525e-08
-5.70853e-09
-5.33252e-09
-3.13216e-08
-3.86039e-08
-1.32914e-08
2.11964e-08
0
0
-6.22658e-07
0
0
0
-6.10459e-07
0
0
0
0
0
0
0
0
0
0
0
-3.04359e-06
0
0
0
-3.01719e-07
0
0
0
-3.50201e-06
0
0
0
-3.48427e-07
0
0
0
0
0
0
0
-3.43496e-07
0
0
0
-3.13189e-07
0
0
-2.30643e-07
0
0
3.99292e-10
1.25687e-09
-1.57998e-08
1.37691e-09
-6.84895e-10
1.51372e-09
-5.78693e-09
8.60265e-10
1.49418e-09
-1.23204e-09
-1.20042e-08
1.43537e-09
1.01472e-10
-5.08114e-09
-1.20481e-08
8.11347e-10
-3.77248e-09
4.21325e-09
-2.83113e-08
-3.88018e-10
1.88413e-08
-5.31488e-09
-5.89289e-08
2.57935e-09
1.48439e-09
5.28901e-09
-3.6965e-08
7.81979e-10
1.93696e-08
1.49192e-09
-2.0131e-08
5.25917e-10
-2.25797e-09
-9.71497e-10
-2.47506e-08
1.31926e-09
-1.02547e-10
2.69476e-10
-1.28022e-08
1.16576e-09
1.63126e-09
4.82949e-10
-1.32495e-08
2.9278e-10
-1.6924e-09
-4.08331e-08
6.48657e-10
1.11497e-09
1.09883e-08
-2.14676e-08
-2.00449e-08
-3.65003e-08
-8.63617e-09
-1.47489e-08
-2.24313e-08
8.14833e-10
-1.90466e-08
-1.41827e-08
-2.28978e-08
-2.18181e-08
-1.56241e-08
-2.5502e-08
-2.27216e-08
-2.26108e-08
-1.99135e-08
1.53034e-08
-4.98614e-08
-2.13377e-08
-3.01733e-08
2.12808e-08
-2.86888e-08
-1.87354e-08
-3.34487e-09
-2.32171e-08
-2.29981e-08
1.12807e-08
-2.63486e-08
-1.55049e-08
-1.69147e-08
-3.03236e-09
-1.79202e-08
-1.99987e-08
-2.5472e-08
-2.32287e-08
-3.35162e-08
-4.46854e-08
-3.93287e-08
-3.50778e-08
5.99115e-09
3.79864e-10
-2.90066e-08
-2.83752e-08
-2.36584e-09
-1.50875e-08
-2.26337e-08
-3.31181e-08
-8.28228e-09
-8.61936e-09
-4.21517e-08
-2.45573e-08
-7.95409e-09
-4.29439e-08
-5.67151e-08
-1.24589e-08
1.65982e-08
-4.56669e-08
-6.5888e-08
-1.68445e-08
-1.46276e-08
-3.9894e-08
-1.5827e-08
6.91057e-09
-2.41053e-08
-3.652e-08
-1.69937e-08
-3.07494e-08
-4.86886e-08
-2.03739e-08
-4.97052e-08
-4.72768e-08
-2.94885e-08
3.52238e-08
-4.20145e-08
-5.45593e-08
-3.39222e-08
2.83804e-08
-4.35646e-08
-2.00946e-08
-8.49382e-09
-4.23291e-08
-1.80605e-08
2.03224e-08
-2.53376e-08
-2.59417e-08
-1.78795e-08
-8.07422e-09
-3.7476e-08
-1.65308e-08
-4.63052e-08
-5.91905e-08
-2.41647e-08
-6.43188e-08
-6.02152e-08
-3.6125e-08
0
0
0
0
0
-3.07588e-07
0
0
-8.03777e-07
0
0
0
0
0
-2.29872e-06
0
0
0
-1.9056e-07
0
0
-3.7471e-08
0
0
-1.17295e-06
0
0
0
0
0
-2.51034e-06
0
0
0
-2.9442e-07
0
0
-9.35378e-07
0
0
-5.89044e-07
0
0
0
0
0
-2.51188e-06
0
0
0
-4.84681e-07
0
0
-6.02199e-07
0
0
-7.45481e-07
0
0
0
0
0
0
0
-1.09777e-09
-8.59249e-11
-8.1827e-08
-3.3443e-10
-6.452e-10
-5.20194e-08
2.49091e-09
9.85433e-10
-2.80587e-08
3.06131e-09
-4.10441e-09
-3.12959e-08
4.52702e-09
3.82512e-09
-3.69937e-08
4.18851e-09
5.4151e-09
5.86634e-10
-4.02411e-08
2.24996e-09
-1.73293e-09
-3.77958e-08
1.79609e-09
7.74866e-10
-5.4852e-08
4.07663e-09
-3.37217e-09
-8.36196e-08
4.74335e-09
3.51645e-09
-1.04602e-07
4.28126e-09
5.89309e-09
-2.276e-10
-9.27947e-08
3.12146e-09
8.829e-10
-6.33983e-08
4.4745e-09
3.56275e-10
-4.44457e-08
2.25699e-09
-3.92814e-09
-4.45458e-08
4.89948e-09
3.42204e-09
-4.75955e-08
4.56439e-09
6.22926e-09
5.61871e-10
-4.40396e-08
3.83467e-09
2.06977e-11
-3.27482e-08
5.45332e-09
1.75257e-09
-4.44914e-08
3.30286e-09
-1.22598e-09
-7.83259e-08
7.37724e-10
-1.14509e-07
-1.21866e-08
-4.46865e-09
2.84662e-08
-3.07773e-08
-6.98088e-08
-3.52901e-08
2.0739e-08
-4.93049e-08
-2.28817e-08
8.96157e-10
-3.2463e-08
-1.60607e-08
-1.31436e-08
-3.11418e-08
-1.03795e-08
3.98205e-09
-3.3897e-08
-3.72568e-09
-1.3597e-08
-6.12571e-10
-3.59979e-08
-1.23863e-08
-1.71764e-08
-3.96633e-08
-1.56225e-08
-2.4337e-08
-5.14676e-08
-1.4204e-08
-2.55183e-08
-7.14432e-08
-1.42125e-08
1.6526e-08
-8.31632e-08
-1.01814e-08
-2.0623e-08
2.70678e-08
-7.50536e-08
-1.15692e-08
1.88178e-08
-5.46643e-08
-1.3923e-08
2.2578e-09
-4.31971e-08
-1.48213e-08
-1.01449e-08
-3.78315e-08
-1.08352e-08
8.6916e-09
-3.92468e-08
-4.64627e-09
-9.46872e-09
7.55183e-09
-3.77745e-08
-9.10973e-09
-1.16977e-08
-3.60178e-08
-1.42853e-08
-3.06903e-08
-4.81301e-08
-1.84123e-08
-3.45267e-08
-7.05456e-08
-2.07361e-08
-9.71332e-08
-2.06131e-08
-2.10458e-08
4.92097e-08
-5.40664e-08
-4.05311e-08
-5.01523e-08
3.66985e-08
-2.47962e-08
-3.2115e-08
4.32869e-09
-2.26249e-08
-2.63453e-08
-1.57264e-08
-2.34452e-08
-1.97954e-08
2.83689e-09
-2.03972e-08
-6.03368e-09
-1.52504e-08
-6.05542e-09
-1.58192e-08
-2.24627e-08
-2.94958e-08
-2.47294e-08
-2.7318e-08
-4.33041e-08
-3.77369e-08
-2.77992e-08
-3.69224e-08
-4.55198e-08
-2.56898e-08
2.4463e-08
-4.04898e-08
-1.86642e-08
-3.11307e-08
4.565e-08
-2.95297e-08
-1.95062e-08
3.04408e-08
-2.02874e-08
-2.26788e-08
7.5445e-09
-2.12272e-08
-2.30164e-08
-1.07376e-08
-2.25403e-08
-2.01743e-08
1.10612e-08
-2.00429e-08
-7.1879e-09
-9.49788e-09
6.57114e-09
-1.55763e-08
-1.38235e-08
-2.36247e-08
-2.08544e-08
-2.45215e-08
-5.23819e-08
-3.46931e-08
-3.1069e-08
-5.74574e-08
-4.76215e-08
-3.15265e-08
-4.95247e-08
-2.84738e-08
-3.00845e-08
2.96918e-09
-2.76439e-09
-4.3435e-08
-4.96583e-08
-1.94681e-08
-3.09984e-08
-4.42145e-08
-1.36711e-08
-5.15149e-08
-3.25803e-08
-5.91509e-08
-6.35775e-08
1.7767e-08
-6.32764e-08
-7.2346e-08
-1.48856e-08
-4.47027e-08
4.39015e-09
-2.91845e-08
-3.38173e-08
-4.09297e-08
-5.21524e-08
-5.36291e-08
-5.45315e-08
4.90502e-08
-5.35862e-08
-5.10777e-08
3.14593e-08
-4.42794e-08
-8.24867e-09
-4.53544e-08
2.15786e-08
-2.93358e-08
-2.23525e-08
-1.51257e-08
-4.14634e-08
-5.68744e-08
-6.75495e-08
-6.87167e-08
-6.99913e-08
6.48891e-08
-6.30426e-08
-4.28195e-08
3.86698e-08
-2.41623e-08
4.3461e-09
-1.95236e-08
-1.12745e-08
-1.94184e-08
7.76531e-09
-1.43828e-08
-6.17558e-09
-1.36363e-08
-1.68837e-08
-4.27579e-08
-2.27496e-08
-5.16787e-08
-2.1338e-08
-3.43562e-08
-2.21275e-08
3.64049e-08
-2.28261e-08
-1.11854e-08
5.49377e-08
-1.02434e-08
2.96936e-08
-1.64e-08
7.11726e-09
-1.69276e-08
-6.73539e-09
-1.81126e-08
1.59208e-08
-1.18606e-08
-1.37078e-09
1.49449e-09
-9.53205e-09
-3.6038e-08
-2.64067e-08
-6.57162e-08
-3.21486e-08
-6.25063e-08
-2.59544e-08
-2.54049e-08
-1.98427e-08
0
0
-5.28887e-06
0
0
0
0
0
0
0
0
0
0
0
0
0
0
0
0
0
0
0
0
0
0
0
0
0
0
0
0
0
0
0
0
0
0
0
0
0
0
0
0
0
0
0
0
0
0
0
0
0
0
0
-1.64247e-06
0
4.19509e-09
3.12798e-08
-1.2349e-07
2.91111e-09
-1.18569e-07
9.70209e-10
-7.74079e-08
2.69515e-09
-4.91641e-08
-4.50513e-09
-4.51998e-08
-1.832e-10
-4.78927e-08
6.91852e-10
-4.99436e-08
5.6083e-10
-5.83126e-08
-4.98794e-10
-5.26013e-08
7.48236e-11
-5.59911e-08
2.58065e-09
-7.36232e-08
-4.12685e-09
-1.0233e-07
-2.29096e-10
-1.20042e-07
1.11731e-09
-1.25709e-07
1.08714e-09
-1.32933e-07
-8.23774e-10
-1.08162e-07
1.64017e-10
-8.23793e-08
2.77409e-09
-6.25203e-08
-4.30866e-09
-5.98631e-08
-7.4656e-11
-5.91895e-08
1.13045e-09
-5.91103e-08
1.42701e-09
-6.49904e-08
8.58378e-10
-5.53106e-08
-2.18168e-09
-5.35038e-08
-1.71378e-09
-6.76466e-08
3.723e-10
-9.99736e-08
2.4633e-08
-1.31312e-07
-1.67398e-07
1.70767e-08
-1.12406e-08
-1.02052e-07
4.06811e-08
-8.52217e-08
2.73494e-08
-5.809e-08
7.20806e-09
-4.21654e-08
-5.73604e-09
-3.90994e-08
-2.81027e-09
-3.70914e-08
-5.60028e-09
-2.97139e-08
3.73019e-09
-3.52259e-08
-3.06729e-09
-4.32561e-08
-1.66053e-08
-5.07536e-08
-2.34984e-08
-6.42549e-08
-2.18492e-08
-8.32869e-08
-6.48532e-09
-9.2129e-08
-1.0786e-09
-8.79244e-08
2.47053e-08
-9.38524e-08
2.44977e-08
-8.203e-08
1.84511e-08
-6.29232e-08
5.81177e-09
-5.11543e-08
-3.01885e-09
-4.64869e-08
-3.32492e-10
-4.18672e-08
-2.99596e-09
-3.63116e-08
8.18375e-09
-3.90582e-08
1.86001e-09
-4.06947e-08
-1.60917e-08
-4.53506e-08
-3.24372e-08
-5.98334e-08
-3.43297e-08
-8.25022e-08
-1.21652e-08
-1.03541e-07
-1.12768e-07
3.31781e-08
-2.10667e-08
-4.35826e-08
6.63265e-08
-3.01305e-08
4.30971e-08
-1.55989e-08
1.19596e-08
-1.46062e-08
-1.15561e-09
-2.19507e-08
3.20385e-09
-2.85731e-08
-1.08033e-08
-2.30508e-08
-4.61949e-09
-9.60465e-09
-1.19804e-08
-1.01123e-08
-3.02405e-08
-1.9467e-08
-4.10602e-08
-2.96458e-08
-3.08225e-08
-4.05674e-08
-4.72877e-09
-4.24904e-08
-4.95037e-09
-3.15636e-08
3.59629e-08
-2.17785e-08
4.31435e-08
-1.76753e-08
3.03374e-08
-1.40846e-08
1.10285e-08
-1.45005e-08
2.52452e-09
-1.95231e-08
4.33718e-09
-2.39515e-08
-5.3511e-09
-1.92335e-08
4.7957e-09
-1.03946e-08
-4.09843e-09
-1.07786e-08
-3.04637e-08
-2.22098e-08
-5.36946e-08
-3.52419e-08
-5.55269e-08
-3.91504e-08
-2.07947e-08
-3.36874e-08
-2.71736e-08
4.72183e-08
-6.81421e-09
8.08995e-08
4.37964e-08
6.25256e-09
-7.31425e-09
6.52062e-09
1.47846e-09
-3.58264e-09
-2.03424e-08
-4.10847e-08
-5.31617e-08
-3.52233e-08
2.81014e-09
8.05304e-09
4.10953e-08
4.51692e-08
2.89779e-08
6.93394e-09
-7.2097e-10
7.53878e-09
3.22489e-09
4.65372e-09
-1.34843e-08
-4.26609e-08
-5.92457e-08
-5.30371e-08
-1.32083e-08
0
0
-1.15169e-06
0
-2.11024e-06
0
-1.78301e-06
0
-1.23216e-09
-3.92888e-10
1.56542e-08
1.55938e-08
)
;

boundaryField
{
    top_fluid_surface
    {
        type            calculated;
        value           uniform 0;
    }
    bottom_fluid_surface
    {
        type            calculated;
        value           uniform 0;
    }
    lateral_surface_1
    {
        type            calculated;
        value           uniform 0;
    }
    lateral_surface_2
    {
        type            calculated;
        value           uniform 0;
    }
    lateral_surface_3
    {
        type            calculated;
        value           uniform 0;
    }
    lateral_surface_4
    {
        type            calculated;
        value           uniform 0;
    }
}


// ************************************************************************* //
