/*--------------------------------*- C++ -*----------------------------------*\
| =========                 |                                                 |
| \\      /  F ield         | OpenFOAM: The Open Source CFD Toolbox           |
|  \\    /   O peration     | Version:  v1612+                                |
|   \\  /    A nd           | Web:      www.OpenFOAM.com                      |
|    \\/     M anipulation  |                                                 |
\*---------------------------------------------------------------------------*/
FoamFile
{
    version     2.0;
    format      ascii;
    class       volScalarField;
    location    "0.005";
    object      p;
}
// * * * * * * * * * * * * * * * * * * * * * * * * * * * * * * * * * * * * * //

dimensions      [1 -1 -2 0 0 0 0];

internalField   nonuniform List<scalar> 
320
(
14724.8
14724.8
14724.8
14724.8
4.90397
4.90411
4.90504
4.90484
4.90422
4.90429
4.90401
4.90455
4.90475
4.90409
4.90439
4.90546
4914.77
4914.77
4914.78
4914.77
4914.77
4914.77
4914.76
4914.77
4914.78
4914.77
4914.77
4914.78
14724.8
14724.8
14724.8
14724.8
14724.8
14724.8
14724.8
14724.8
14724.8
14724.8
14724.8
14724.8
24534.8
24534.8
24534.8
24534.8
24534.8
24534.8
24534.8
24534.8
24534.8
24534.7
24534.8
24534.8
24534.8
24534.8
24534.8
24534.8
4.90503
4.90517
4.90497
4.90525
4.90374
4.90508
4.90495
4.90402
4.90482
4.90378
4.90472
4.90397
4.90483
4.9051
4.90367
4.9049
4.9048
4.90482
4.90547
4.90516
4914.78
4914.77
4914.77
4914.78
4914.77
4914.77
4914.78
4914.77
4914.78
4914.77
4914.77
4914.77
4914.77
4914.78
4914.77
4914.77
4914.77
4914.77
4914.78
4914.78
14724.7
14724.8
14724.8
14724.8
14724.7
14724.8
14724.8
14724.8
14724.7
14724.7
14724.7
14724.8
14724.8
14724.8
14724.7
14724.8
14724.8
14724.8
14724.7
14724.7
24534.7
24534.7
24534.8
24534.7
24534.7
24534.7
24534.7
24534.7
24534.7
24534.7
24534.7
24534.7
24534.7
24534.7
24534.7
24534.7
24534.7
24534.7
24534.7
24534.7
34344.8
34344.8
34344.8
34344.8
34344.8
34344.8
34344.8
34344.8
34344.7
34344.7
34344.8
34344.8
34344.8
34344.8
34344.8
34344.7
34344.7
34344.7
34344.7
34344.7
34344.7
34344.7
34344.7
34344.7
34344.7
34344.7
34344.7
34344.7
34344.7
34344.7
34344.7
34344.7
34344.7
34344.7
34344.7
34344.7
4.90272
4.9035
4.90584
4.90636
4.90691
4.90499
4.90519
4.90569
4.90587
4.90584
4.90593
4.90666
4.90502
4.90516
4.90598
4.90622
4.90588
4.90603
4.90681
4.90503
4.90522
4.906
4.90649
4.90676
4.90569
4.90468
4.90533
4.91562
4914.76
4914.77
4914.78
4914.78
4914.78
4914.78
4914.78
4914.78
4914.78
4914.78
4914.78
4914.78
4914.78
4914.78
4914.78
4914.78
4914.78
4914.78
4914.78
4914.78
4914.78
4914.78
4914.78
4914.78
4914.78
4914.78
4914.77
4914.81
14724.7
14724.7
14724.7
14724.8
14724.8
14724.7
14724.7
14724.7
14724.7
14724.8
14724.7
14724.7
14724.7
14724.7
14724.7
14724.7
14724.8
14724.8
14724.8
14724.7
14724.7
14724.7
14724.7
14724.8
14724.8
14724.7
14724.7
14724.7
24534.7
24534.7
24534.7
24534.7
24534.7
24534.7
24534.7
24534.7
24534.7
24534.7
24534.7
24534.7
24534.7
24534.7
24534.7
24534.7
24534.7
24534.7
24534.7
24534.7
24534.7
24534.7
24534.7
24534.7
24534.7
24534.7
24534.7
24534.7
34344.7
34344.7
34344.7
34344.7
34344.7
34344.7
34344.7
34344.7
34344.7
34344.7
34344.7
34344.7
34344.7
34344.7
34344.7
34344.7
34344.7
34344.7
34344.7
34344.7
34344.7
34344.7
34344.7
34344.7
34344.7
34344.7
34344.7
34344.6
4.90481
4.90556
4.90582
4.9113
4914.77
4914.77
4914.77
4914.8
)
;

boundaryField
{
    top_fluid_surface
    {
        type            calculated;
        value           nonuniform List<scalar> 
64
(
-7.02715e-15
-1.80026e-13
-2.59504e-14
-2.48155e-14
0
-5.52228e-14
0
-5.73116e-14
-2.43376e-14
-6.45061e-14
-6.52272e-14
0
-6.99712e-15
0
0
-5.874e-14
0
0
-1.05883e-14
0
-3.33895e-14
0
-1.54044e-14
-1.42552e-13
0
-2.23792e-14
0
0
0
0
0
-6.86768e-15
0
-5.82302e-13
-2.6488e-14
0
-1.84509e-14
-5.11525e-16
-6.96106e-15
-1.43075e-17
-4.48493e-21
-3.90196e-15
0
-2.82766e-14
0
-3.51548e-15
0
-7.37702e-15
-2.10439e-15
0
-1.93251e-14
-2.45853e-19
-1.0166e-14
-5.19989e-17
-8.10247e-16
-3.87311e-15
-3.0312e-17
-7.54492e-14
0
-2.42763e-12
0
0
0
-4.06305e-14
)
;
    }
    bottom_fluid_surface
    {
        type            calculated;
        value           nonuniform List<scalar> 
64
(
39249.8
39249.8
39249.8
39249.8
39249.8
39249.8
39249.8
39249.8
39249.7
39249.7
39249.8
39249.8
39249.8
39249.8
39249.8
39249.7
39249.7
39249.7
39249.7
39249.7
39249.7
39249.7
39249.7
39249.7
39249.7
39249.7
39249.7
39249.7
39249.7
39249.7
39249.7
39249.7
39249.7
39249.7
39249.7
39249.7
39249.7
39249.7
39249.7
39249.7
39249.7
39249.7
39249.7
39249.7
39249.7
39249.7
39249.7
39249.7
39249.7
39249.7
39249.7
39249.7
39249.7
39249.7
39249.7
39249.7
39249.7
39249.7
39249.7
39249.7
39249.7
39249.7
39249.7
39249.6
)
;
    }
    lateral_surface_1
    {
        type            calculated;
        value           nonuniform List<scalar> 
40
(
4.90272
4.9035
4.90584
4.90636
4.90691
4.90499
4.90519
4.91562
4914.76
4914.77
4914.78
4914.78
4914.78
4914.78
4914.78
4914.81
14724.7
14724.7
14724.7
14724.8
14724.8
14724.7
14724.7
14724.7
24534.7
24534.7
24534.7
24534.7
24534.7
24534.7
24534.7
24534.7
34344.7
34344.7
34344.7
34344.7
34344.7
34344.7
34344.7
34344.6
)
;
    }
    lateral_surface_2
    {
        type            calculated;
        value           nonuniform List<scalar> 
40
(
4.90516
4.90598
4.90622
4.90588
4.90603
4.90681
4.90503
4.90522
4914.78
4914.78
4914.78
4914.78
4914.78
4914.78
4914.78
4914.78
14724.7
14724.7
14724.7
14724.8
14724.8
14724.8
14724.7
14724.7
24534.7
24534.7
24534.7
24534.7
24534.7
24534.7
24534.7
24534.7
34344.7
34344.7
34344.7
34344.7
34344.7
34344.7
34344.7
34344.7
)
;
    }
    lateral_surface_3
    {
        type            calculated;
        value           nonuniform List<scalar> 
40
(
4.90519
4.90569
4.90587
4.90584
4.90593
4.90666
4.90502
4.90516
4914.78
4914.78
4914.78
4914.78
4914.78
4914.78
4914.78
4914.78
14724.7
14724.7
14724.7
14724.8
14724.7
14724.7
14724.7
14724.7
24534.7
24534.7
24534.7
24534.7
24534.7
24534.7
24534.7
24534.7
34344.7
34344.7
34344.7
34344.7
34344.7
34344.7
34344.7
34344.7
)
;
    }
    lateral_surface_4
    {
        type            calculated;
        value           nonuniform List<scalar> 
40
(
4.90522
4.906
4.90649
4.90676
4.90569
4.90468
4.90533
4.91562
4914.78
4914.78
4914.78
4914.78
4914.78
4914.78
4914.77
4914.81
14724.7
14724.7
14724.7
14724.8
14724.8
14724.7
14724.7
14724.7
24534.7
24534.7
24534.7
24534.7
24534.7
24534.7
24534.7
24534.7
34344.7
34344.7
34344.7
34344.7
34344.7
34344.7
34344.7
34344.6
)
;
    }
}


// ************************************************************************* //
