/*--------------------------------*- C++ -*----------------------------------*\
| =========                 |                                                 |
| \\      /  F ield         | OpenFOAM: The Open Source CFD Toolbox           |
|  \\    /   O peration     | Version:  v1612+                                |
|   \\  /    A nd           | Web:      www.OpenFOAM.com                      |
|    \\/     M anipulation  |                                                 |
\*---------------------------------------------------------------------------*/
FoamFile
{
    version     2.0;
    format      ascii;
    class       volScalarField;
    location    "0.005";
    object      p_rgh;
}
// * * * * * * * * * * * * * * * * * * * * * * * * * * * * * * * * * * * * * //

dimensions      [1 -1 -2 0 0 0 0];

internalField   nonuniform List<scalar> 
320
(
-9800.21
-9800.22
-9800.22
-9800.22
-0.00102914
-0.000887625
3.69361e-05
-0.000162508
-0.000779738
-0.000706358
-0.000985609
-0.000452717
-0.000250826
-0.000914824
-0.000609968
0.000460467
-9800.23
-9800.23
-9800.22
-9800.23
-9800.23
-9800.23
-9800.24
-9800.23
-9800.22
-9800.23
-9800.23
-9800.22
-9800.23
-9800.23
-9800.23
-9800.23
-9800.24
-9800.24
-9800.24
-9800.23
-9800.23
-9800.23
-9800.23
-9800.23
-9800.21
-9800.21
-9800.21
-9800.22
-9800.23
-9800.23
-9800.24
-9800.23
-9800.24
-9800.26
-9800.24
-9800.24
-9800.24
-9800.23
-9800.23
-9800.25
2.52992e-05
0.000167669
-3.2628e-05
0.000250967
-0.00125823
8.37166e-05
-4.97724e-05
-0.000976601
-0.000183853
-0.00121576
-0.000275201
-0.00102894
-0.000165971
9.61261e-05
-0.00132637
-0.000104068
-0.000204592
-0.000176154
0.000466189
0.000161433
-9800.22
-9800.23
-9800.23
-9800.22
-9800.23
-9800.23
-9800.22
-9800.23
-9800.22
-9800.23
-9800.23
-9800.23
-9800.23
-9800.22
-9800.23
-9800.23
-9800.23
-9800.23
-9800.22
-9800.22
-9800.25
-9800.24
-9800.23
-9800.24
-9800.25
-9800.25
-9800.24
-9800.25
-9800.25
-9800.26
-9800.25
-9800.24
-9800.24
-9800.24
-9800.25
-9800.24
-9800.24
-9800.24
-9800.25
-9800.26
-9800.28
-9800.26
-9800.25
-9800.26
-9800.27
-9800.27
-9800.26
-9800.27
-9800.27
-9800.29
-9800.28
-9800.26
-9800.26
-9800.26
-9800.27
-9800.26
-9800.25
-9800.26
-9800.28
-9800.3
-9800.2
-9800.21
-9800.21
-9800.21
-9800.23
-9800.23
-9800.24
-9800.24
-9800.25
-9800.27
-9800.24
-9800.24
-9800.25
-9800.23
-9800.24
-9800.26
-9800.29
-9800.27
-9800.26
-9800.27
-9800.28
-9800.27
-9800.27
-9800.28
-9800.3
-9800.3
-9800.28
-9800.27
-9800.26
-9800.27
-9800.27
-9800.26
-9800.26
-9800.27
-9800.3
-9800.33
-0.00227813
-0.00149531
0.000841966
0.00136451
0.00191204
-5.85963e-06
0.000192563
0.000691834
0.000869592
0.000843358
0.00093333
0.00166261
1.93601e-05
0.000160291
0.000976461
0.00121819
0.000882508
0.00103251
0.00181419
2.60924e-05
0.000218943
0.000995051
0.00149472
0.0017583
0.000695
-0.00032031
0.000333311
0.0106194
-9800.24
-9800.23
-9800.22
-9800.22
-9800.22
-9800.22
-9800.22
-9800.22
-9800.22
-9800.22
-9800.22
-9800.22
-9800.22
-9800.22
-9800.22
-9800.22
-9800.22
-9800.22
-9800.22
-9800.22
-9800.22
-9800.22
-9800.22
-9800.22
-9800.22
-9800.22
-9800.23
-9800.19
-9800.28
-9800.27
-9800.25
-9800.24
-9800.24
-9800.25
-9800.26
-9800.26
-9800.26
-9800.25
-9800.25
-9800.25
-9800.26
-9800.27
-9800.27
-9800.26
-9800.25
-9800.25
-9800.25
-9800.25
-9800.26
-9800.26
-9800.25
-9800.24
-9800.25
-9800.26
-9800.28
-9800.27
-9800.32
-9800.31
-9800.28
-9800.27
-9800.27
-9800.27
-9800.27
-9800.28
-9800.28
-9800.28
-9800.28
-9800.29
-9800.29
-9800.3
-9800.3
-9800.29
-9800.28
-9800.27
-9800.27
-9800.27
-9800.27
-9800.27
-9800.27
-9800.27
-9800.27
-9800.29
-9800.32
-9800.33
-9800.34
-9800.32
-9800.29
-9800.27
-9800.29
-9800.3
-9800.29
-9800.28
-9800.28
-9800.28
-9800.29
-9800.31
-9800.32
-9800.32
-9800.31
-9800.3
-9800.28
-9800.28
-9800.28
-9800.29
-9800.28
-9800.27
-9800.27
-9800.27
-9800.29
-9800.31
-9800.34
-9800.35
-0.000185935
0.000562055
0.00081552
0.00629612
-9800.23
-9800.23
-9800.23
-9800.2
)
;

boundaryField
{
    top_fluid_surface
    {
        type            totalPressure;
        rho             rho;
        psi             none;
        gamma           1;
        p0              uniform 0;
        value           nonuniform List<scalar> 
64
(
-7.02715e-15
-1.80026e-13
-2.59504e-14
-2.48155e-14
0
-5.52228e-14
0
-5.73116e-14
-2.43376e-14
-6.45061e-14
-6.52272e-14
0
-6.99712e-15
0
0
-5.874e-14
0
0
-1.05883e-14
0
-3.33895e-14
0
-1.54044e-14
-1.42552e-13
0
-2.23792e-14
0
0
0
0
0
-6.86768e-15
0
-5.82302e-13
-2.6488e-14
0
-1.84509e-14
-5.11525e-16
-6.96106e-15
-1.43075e-17
-4.48493e-21
-3.90196e-15
0
-2.82766e-14
0
-3.51548e-15
0
-7.37702e-15
-2.10439e-15
0
-1.93251e-14
-2.45853e-19
-1.0166e-14
-5.19989e-17
-8.10247e-16
-3.87311e-15
-3.0312e-17
-7.54492e-14
0
-2.42763e-12
0
0
0
-4.06305e-14
)
;
    }
    bottom_fluid_surface
    {
        type            fixedFluxPressure;
        gradient        uniform 0;
        value           nonuniform List<scalar> 
64
(
-9800.2
-9800.21
-9800.21
-9800.21
-9800.23
-9800.23
-9800.24
-9800.24
-9800.25
-9800.27
-9800.24
-9800.24
-9800.25
-9800.23
-9800.24
-9800.26
-9800.29
-9800.27
-9800.26
-9800.27
-9800.28
-9800.27
-9800.27
-9800.28
-9800.3
-9800.3
-9800.28
-9800.27
-9800.26
-9800.27
-9800.27
-9800.26
-9800.26
-9800.27
-9800.3
-9800.33
-9800.34
-9800.32
-9800.29
-9800.27
-9800.29
-9800.3
-9800.29
-9800.28
-9800.28
-9800.28
-9800.29
-9800.31
-9800.32
-9800.32
-9800.31
-9800.3
-9800.28
-9800.28
-9800.28
-9800.29
-9800.28
-9800.27
-9800.27
-9800.27
-9800.29
-9800.31
-9800.34
-9800.35
)
;
    }
    lateral_surface_1
    {
        type            fixedFluxPressure;
        gradient        uniform 0;
        value           nonuniform List<scalar> 
40
(
-0.00227813
-0.00149531
0.000841966
0.00136451
0.00191204
-5.85963e-06
0.000192563
0.0106194
-9800.24
-9800.23
-9800.22
-9800.22
-9800.22
-9800.22
-9800.22
-9800.19
-9800.28
-9800.27
-9800.25
-9800.24
-9800.24
-9800.25
-9800.26
-9800.27
-9800.32
-9800.31
-9800.28
-9800.27
-9800.27
-9800.27
-9800.27
-9800.33
-9800.34
-9800.32
-9800.29
-9800.27
-9800.29
-9800.3
-9800.29
-9800.35
)
;
    }
    lateral_surface_2
    {
        type            fixedFluxPressure;
        gradient        uniform 0;
        value           nonuniform List<scalar> 
40
(
0.000160291
0.000976461
0.00121819
0.000882508
0.00103251
0.00181419
2.60924e-05
0.000218943
-9800.22
-9800.22
-9800.22
-9800.22
-9800.22
-9800.22
-9800.22
-9800.22
-9800.27
-9800.27
-9800.26
-9800.25
-9800.25
-9800.25
-9800.25
-9800.26
-9800.3
-9800.3
-9800.29
-9800.28
-9800.27
-9800.27
-9800.27
-9800.27
-9800.32
-9800.31
-9800.3
-9800.28
-9800.28
-9800.28
-9800.29
-9800.28
)
;
    }
    lateral_surface_3
    {
        type            fixedFluxPressure;
        gradient        uniform 0;
        value           nonuniform List<scalar> 
40
(
0.000192563
0.000691834
0.000869592
0.000843358
0.00093333
0.00166261
1.93601e-05
0.000160291
-9800.22
-9800.22
-9800.22
-9800.22
-9800.22
-9800.22
-9800.22
-9800.22
-9800.26
-9800.26
-9800.26
-9800.25
-9800.25
-9800.25
-9800.26
-9800.27
-9800.27
-9800.28
-9800.28
-9800.28
-9800.28
-9800.29
-9800.29
-9800.3
-9800.29
-9800.28
-9800.28
-9800.28
-9800.29
-9800.31
-9800.32
-9800.32
)
;
    }
    lateral_surface_4
    {
        type            fixedFluxPressure;
        gradient        uniform 0;
        value           nonuniform List<scalar> 
40
(
0.000218943
0.000995051
0.00149472
0.0017583
0.000695
-0.00032031
0.000333311
0.0106194
-9800.22
-9800.22
-9800.22
-9800.22
-9800.22
-9800.22
-9800.23
-9800.19
-9800.26
-9800.26
-9800.25
-9800.24
-9800.25
-9800.26
-9800.28
-9800.27
-9800.27
-9800.27
-9800.27
-9800.27
-9800.27
-9800.29
-9800.32
-9800.33
-9800.28
-9800.27
-9800.27
-9800.27
-9800.29
-9800.31
-9800.34
-9800.35
)
;
    }
}


// ************************************************************************* //
