/*--------------------------------*- C++ -*----------------------------------*\
| =========                 |                                                 |
| \\      /  F ield         | OpenFOAM: The Open Source CFD Toolbox           |
|  \\    /   O peration     | Version:  v1612+                                |
|   \\  /    A nd           | Web:      www.OpenFOAM.com                      |
|    \\/     M anipulation  |                                                 |
\*---------------------------------------------------------------------------*/
FoamFile
{
    version     2.0;
    format      ascii;
    class       surfaceScalarField;
    location    "0.005";
    object      alphaPhi;
}
// * * * * * * * * * * * * * * * * * * * * * * * * * * * * * * * * * * * * * //

dimensions      [0 3 -1 0 0 0 0];

internalField   nonuniform List<scalar> 
816
(
-4.69104e-09
-1.13596e-09
2.23481e-08
1.9143e-08
-4.39417e-08
4.6041e-08
1.03207e-08
1.47246e-08
2.25422e-08
-4.62256e-08
5.16986e-08
5.75766e-09
2.65205e-08
1.66717e-08
-4.26692e-08
4.78938e-08
2.88704e-08
3.83824e-08
-3.60896e-08
4.25577e-08
0
0
-1.10326e-07
0
0
0
-5.98525e-07
0
0
0
-3.10869e-07
0
0
0
-3.36511e-07
0
0
0
-1.16979e-06
0
0
0
-1.20065e-07
0
0
0
-1.05887e-06
0
0
0
-3.82699e-07
0
0
0
-1.16715e-07
0
0
0
-4.5294e-07
0
0
0
-3.72903e-07
0
0
0
0
0
-8.60971e-10
4.68149e-10
-2.61503e-08
2.21867e-13
-1.41645e-09
3.10695e-10
-3.91822e-08
3.1262e-10
-9.56498e-10
-3.08294e-10
-2.17715e-08
-4.95642e-11
3.82667e-10
-9.08727e-10
-3.14287e-08
6.33269e-10
-1.48353e-09
1.53117e-09
-1.35033e-08
1.04451e-09
-3.03703e-11
-1.19402e-09
2.80055e-08
4.75411e-10
5.75289e-10
9.09652e-10
-5.6029e-09
1.02534e-09
-2.53711e-10
7.24984e-10
-2.37938e-08
9.01407e-11
-9.70286e-10
-4.11686e-10
-1.27966e-08
9.05956e-11
-3.94868e-10
1.38234e-10
-3.31798e-08
2.29793e-10
-8.88442e-10
8.19224e-10
-2.88183e-08
1.30546e-10
-9.03415e-10
5.80684e-09
-6.2222e-10
-2.83062e-10
-1.38474e-08
3.45021e-08
-2.0932e-08
4.82583e-08
1.70761e-08
-3.19226e-08
3.58271e-08
-9.62735e-09
-1.41087e-08
2.00868e-08
2.98387e-08
1.7243e-08
-2.0548e-08
4.17956e-08
4.74989e-08
1.7826e-09
4.5757e-08
-3.80702e-08
3.66147e-08
3.84681e-08
4.84352e-08
-1.75194e-08
6.68222e-09
4.62914e-08
1.07665e-08
-1.59611e-08
3.90092e-08
-2.09948e-08
-7.33276e-09
2.48344e-08
2.08245e-08
5.04449e-09
-2.52688e-08
3.36532e-08
3.8207e-08
-1.93191e-08
4.34351e-08
1.97079e-08
5.52615e-08
5.03207e-08
-5.76971e-09
4.30655e-10
4.57506e-08
4.35792e-08
-1.61767e-08
2.09306e-08
2.94545e-08
4.72441e-08
-1.60771e-08
1.30122e-08
5.23212e-08
3.43218e-08
-1.39095e-08
6.65361e-08
7.80348e-08
-6.54621e-09
-2.58827e-08
7.55156e-08
8.8235e-08
-5.50546e-09
3.19078e-08
6.4777e-08
-7.35843e-09
-1.17058e-08
3.37562e-08
4.94277e-08
-1.11903e-09
4.00177e-08
7.05556e-08
-2.87387e-09
8.08369e-08
7.7062e-08
1.27151e-08
-6.86424e-08
6.67676e-08
7.55523e-08
2.71625e-08
-3.86362e-08
7.29861e-08
1.56202e-08
1.53703e-08
6.78913e-08
-7.62835e-10
-3.70902e-08
4.53834e-08
3.50556e-08
9.4751e-10
1.2419e-08
6.07334e-08
-5.28857e-09
7.67396e-08
8.40613e-08
-3.38839e-09
1.00088e-07
9.3869e-08
2.09532e-08
0
0
-3.8096e-09
0
0
-1.11503e-07
0
0
-6.13184e-07
0
0
-6.10604e-07
0
0
-2.17171e-07
0
0
0
-1.47357e-07
0
0
-1.58322e-07
0
0
-6.14359e-07
0
0
-3.62172e-07
0
0
0
0
0
0
-4.06223e-08
0
0
-5.34583e-07
0
0
-5.14195e-07
0
0
-3.62326e-07
0
0
-1.92834e-07
0
0
0
-3.64977e-07
0
0
-6.96599e-07
0
0
-5.34839e-07
0
0
0
0
0
0
0
-7.70646e-10
-9.30872e-10
5.69213e-08
-3.29254e-09
-1.0847e-09
1.98838e-08
-1.17027e-09
3.20475e-11
-4.86007e-09
7.81417e-11
8.59317e-10
-4.09724e-09
1.26496e-09
2.90692e-11
1.22448e-08
9.2665e-11
2.04268e-10
-2.52857e-10
3.75456e-09
-1.85055e-10
-7.56741e-10
6.40466e-09
-5.08472e-10
5.56424e-10
2.6742e-08
6.07604e-10
9.80687e-10
6.16508e-08
1.14551e-09
-5.74286e-10
9.26294e-08
4.48819e-11
-1.19426e-10
-1.03656e-09
6.92123e-08
8.32888e-11
-1.07768e-10
3.41285e-08
4.27769e-10
3.90769e-10
1.19326e-08
-2.85008e-10
3.5843e-10
9.48695e-09
8.61052e-10
-5.26434e-10
1.97411e-08
2.76125e-10
-2.40269e-10
-7.23718e-10
6.01154e-09
-1.96852e-10
3.69612e-10
-1.07824e-09
8.37253e-10
1.66323e-09
1.31013e-08
5.8811e-10
-6.7079e-10
5.30835e-08
-1.67568e-09
9.99803e-08
-6.3608e-09
-6.64128e-09
-3.95115e-08
4.822e-08
6.50874e-08
4.24954e-08
-2.77546e-08
2.2588e-08
3.22853e-08
-1.17778e-09
2.94289e-11
2.72443e-08
1.76182e-08
1.86947e-10
2.07083e-08
-8.4976e-09
1.45594e-08
1.24672e-08
1.66088e-08
3.25574e-09
6.17384e-09
2.2635e-08
2.09437e-08
9.29312e-09
2.7831e-08
3.8065e-08
3.29634e-08
3.04088e-08
3.52834e-08
6.43474e-08
2.6058e-08
-2.49642e-08
9.32295e-08
1.99579e-08
2.55877e-08
-3.82901e-08
6.51474e-08
2.32639e-08
-2.51255e-08
3.26004e-08
2.68916e-08
-3.95831e-09
1.37283e-08
2.60333e-08
9.95474e-09
1.29128e-08
2.09243e-08
-1.4404e-08
2.24734e-08
1.34567e-08
9.28e-09
-7.04254e-09
7.87637e-09
1.4864e-08
1.53608e-08
3.88981e-09
2.52409e-08
4.42837e-08
2.35442e-08
3.3619e-08
5.25838e-08
6.36828e-08
3.38974e-08
1.02219e-07
2.9076e-08
2.9121e-08
-8.24862e-08
8.56667e-08
4.05202e-08
7.10013e-08
-5.18505e-08
1.76327e-08
5.10923e-08
-2.17981e-09
5.9296e-09
4.40974e-08
3.03319e-08
4.1257e-09
3.05275e-08
-1.58004e-08
8.02656e-09
1.62403e-08
2.39429e-08
7.61784e-09
9.94277e-09
3.29125e-08
4.51786e-08
1.29171e-08
4.43403e-08
7.08607e-08
2.40412e-08
4.6671e-08
6.36168e-08
3.14322e-08
3.98428e-08
-5.41092e-08
4.33097e-08
3.2659e-08
3.25101e-08
-7.11309e-08
3.4683e-08
2.9702e-08
-4.36089e-08
2.15316e-08
3.72274e-08
-5.26818e-09
1.22753e-08
3.93727e-08
1.80972e-08
7.88746e-09
3.12178e-08
-2.85945e-08
9.62679e-09
1.94453e-08
1.28917e-08
-9.49501e-09
8.94061e-09
2.29063e-08
3.60417e-08
1.04372e-08
4.29941e-08
8.46839e-08
2.28631e-08
5.84405e-08
9.13679e-08
4.08083e-08
5.73698e-08
4.98892e-08
4.66655e-08
3.99004e-08
-5.09465e-09
2.8724e-09
5.77556e-08
5.93251e-08
3.46126e-08
3.82727e-08
6.12301e-08
2.38092e-08
6.64315e-08
4.29273e-08
8.20937e-08
9.56762e-08
-2.65964e-08
9.98347e-08
1.07068e-07
3.83737e-08
7.60757e-08
-1.01039e-08
3.62529e-08
5.72852e-08
5.36875e-08
8.43911e-08
9.31037e-08
8.62706e-08
-7.77385e-08
7.00696e-08
8.24192e-08
-5.14006e-08
7.6922e-08
1.31388e-08
7.71864e-08
-4.21173e-08
4.92507e-08
3.97694e-08
1.62822e-08
7.46669e-08
9.7878e-08
1.06202e-07
1.17227e-07
1.1193e-07
-1.02962e-07
9.51551e-08
7.12424e-08
-6.28576e-08
5.16142e-08
-4.99576e-09
4.72513e-08
3.11735e-08
2.99387e-08
-1.08585e-08
1.05721e-08
2.2461e-08
1.19743e-08
3.19669e-08
5.40959e-08
5.00939e-08
7.81512e-08
5.19156e-08
7.38825e-08
3.91228e-08
-6.14523e-08
2.53575e-08
2.83823e-08
-8.32125e-08
2.59943e-08
-5.26494e-08
3.36416e-08
-9.99697e-09
3.93686e-08
1.7481e-08
3.07666e-08
-2.6042e-08
1.29657e-08
1.06484e-08
-3.57841e-09
2.21487e-08
4.78385e-08
4.86657e-08
9.9967e-08
6.59389e-08
1.00357e-07
5.97656e-08
5.00758e-08
3.71605e-08
0
0
-2.78349e-06
0
-1.63581e-06
0
-6.96527e-07
0
-5.84059e-07
0
0
0
-1.49683e-07
0
-4.0373e-07
0
-2.00171e-07
0
-3.21321e-07
0
-4.86515e-07
0
-4.70799e-07
0
0
0
0
0
-3.80736e-07
0
-7.00327e-08
0
-4.88279e-08
0
-4.59178e-07
0
-6.29169e-07
0
0
0
-9.71087e-08
0
-5.09394e-07
0
-3.62094e-07
0
-4.45893e-07
0
-1.77522e-07
0
-1.99816e-07
0
-7.31247e-07
0
-2.93415e-06
0
-1.15498e-09
1.14691e-08
1.30002e-07
2.62504e-09
9.80378e-08
9.61786e-10
4.8888e-08
1.29104e-09
1.89347e-08
-1.53401e-10
1.38822e-08
-5.69865e-10
2.35123e-08
2.73748e-10
2.77228e-08
-2.10627e-10
2.66411e-08
-4.20288e-10
2.34954e-08
3.09465e-10
3.07282e-08
1.37417e-09
5.22439e-08
-2.14539e-10
8.32114e-08
-9.86196e-10
1.10619e-07
5.26955e-10
1.20021e-07
2.07135e-11
1.13697e-07
-8.50159e-10
8.78672e-08
-3.43137e-11
5.56521e-08
1.28227e-09
3.42015e-08
-1.98604e-10
2.7266e-08
-9.02113e-10
3.14248e-08
1.96385e-10
3.15685e-08
9.0365e-11
2.77598e-08
4.17496e-10
1.91567e-08
-1.80559e-10
2.05789e-08
-2.02048e-09
4.33698e-08
-1.18457e-10
8.47472e-08
1.1133e-08
1.29036e-07
1.4667e-07
-3.50759e-08
3.33955e-08
1.21155e-07
-4.9252e-08
9.33748e-08
-3.2982e-08
4.18349e-08
-6.11014e-09
1.60672e-08
7.74059e-09
1.00827e-08
3.48631e-09
1.73688e-08
-3.65199e-10
2.43094e-08
-2.74515e-10
2.16439e-08
7.56575e-09
1.63727e-08
2.29408e-08
2.61549e-08
3.47198e-08
5.02433e-08
2.94286e-08
7.79938e-08
1.03889e-08
1.03636e-07
-6.80152e-09
1.1113e-07
-2.77304e-08
1.00065e-07
-3.58049e-08
7.17165e-08
-2.51202e-08
4.38072e-08
-7.75295e-09
2.73212e-08
3.93531e-10
2.31351e-08
-5.64165e-10
2.7124e-08
-2.97317e-09
3.18914e-08
-6.97024e-09
2.59986e-08
3.17525e-09
1.61511e-08
2.38984e-08
2.13731e-08
4.41253e-08
4.81584e-08
4.88223e-08
8.69336e-08
3.47662e-08
1.14486e-07
1.18567e-07
-6.19442e-08
3.4104e-08
5.42708e-08
-9.83188e-08
4.01669e-08
-5.95436e-08
1.85359e-08
-1.24365e-08
1.06167e-08
1.4151e-08
4.653e-09
1.06599e-08
3.85821e-09
-3.92289e-09
5.34852e-09
-3.84551e-09
7.19641e-09
1.70045e-08
9.98444e-09
4.73268e-08
1.96982e-08
6.46721e-08
2.99359e-08
5.59942e-08
3.20227e-08
1.85112e-08
3.82371e-08
-1.88072e-08
4.31302e-08
-5.70498e-08
3.89409e-08
-6.3735e-08
2.8353e-08
-4.14728e-08
1.84264e-08
-1.14743e-08
1.28074e-08
5.49843e-09
8.0077e-09
3.61508e-09
6.17341e-09
-9.75106e-09
8.46692e-09
-1.58337e-08
8.60753e-09
8.86425e-09
9.01827e-09
5.16068e-08
1.72142e-08
8.2678e-08
3.09218e-08
7.55208e-08
4.36969e-08
4.05264e-08
4.69877e-08
3.78462e-08
-7.60032e-08
1.91006e-08
-1.17365e-07
-6.76342e-08
-1.8463e-08
1.01576e-08
1.03949e-08
-5.23052e-10
2.81959e-09
2.75898e-08
5.62672e-08
6.60709e-08
6.00625e-08
2.25412e-08
-2.20342e-08
-6.57812e-08
-7.30008e-08
-4.73624e-08
-1.77228e-08
3.64965e-10
4.93764e-09
-7.61885e-09
-1.14543e-08
1.714e-08
6.4622e-08
9.43374e-08
7.74044e-08
2.82361e-08
0
0
-7.13352e-07
0
-1.15071e-06
0
-9.59402e-07
-8.56036e-07
-5.78396e-10
-4.65218e-10
-5.39525e-11
-3.30859e-10
)
;

boundaryField
{
    top_fluid_surface
    {
        type            calculated;
        value           uniform 0;
    }
    bottom_fluid_surface
    {
        type            calculated;
        value           uniform 0;
    }
    lateral_surface_1
    {
        type            calculated;
        value           uniform 0;
    }
    lateral_surface_2
    {
        type            calculated;
        value           uniform 0;
    }
    lateral_surface_3
    {
        type            calculated;
        value           uniform 0;
    }
    lateral_surface_4
    {
        type            calculated;
        value           uniform 0;
    }
}


// ************************************************************************* //
