/*--------------------------------*- C++ -*----------------------------------*\
| =========                 |                                                 |
| \\      /  F ield         | OpenFOAM: The Open Source CFD Toolbox           |
|  \\    /   O peration     | Version:  v1612+                                |
|   \\  /    A nd           | Web:      www.OpenFOAM.com                      |
|    \\/     M anipulation  |                                                 |
\*---------------------------------------------------------------------------*/
FoamFile
{
    version     2.0;
    format      ascii;
    class       surfaceScalarField;
    location    "0.005";
    object      phi;
}
// * * * * * * * * * * * * * * * * * * * * * * * * * * * * * * * * * * * * * //

dimensions      [0 3 -1 0 0 0 0];

internalField   nonuniform List<scalar> 
816
(
-5.522e-09
-1.31406e-09
2.63684e-08
2.26534e-08
-5.05985e-08
5.25338e-08
1.23406e-08
1.71972e-08
2.60941e-08
-5.33832e-08
5.92715e-08
6.81259e-09
3.09071e-08
1.95044e-08
-4.91804e-08
5.48104e-08
3.39306e-08
4.51071e-08
-4.12601e-08
4.86225e-08
-3.15618e-07
7.7885e-08
-1.31738e-07
-8.99944e-08
-1.45915e-07
3.24603e-08
-7.00876e-07
-9.42851e-08
2.12649e-07
-2.53897e-08
-3.61956e-07
9.3519e-09
1.74901e-07
-3.13623e-08
-3.94705e-07
-2.63244e-08
5.69946e-08
2.25863e-07
-1.3348e-06
-2.0799e-07
5.81036e-07
-6.06938e-08
-1.46965e-07
1.44272e-07
3.04925e-07
3.37628e-08
-1.2054e-06
-2.73276e-07
4.32578e-07
6.12962e-08
-4.45317e-07
-1.37819e-07
5.60502e-08
-2.33725e-08
-1.3975e-07
3.18378e-08
1.07005e-07
8.93101e-08
-5.28954e-07
-1.62013e-07
2.17813e-07
1.57372e-07
-4.36763e-07
-2.76697e-07
5.21881e-08
5.7089e-08
-4.23413e-07
-2.94028e-07
-9.86738e-10
5.72498e-10
-2.95622e-08
6.57199e-12
-1.58081e-09
3.66212e-10
-4.47249e-08
3.68485e-10
-1.03867e-09
-3.60686e-10
-2.48236e-08
-2.69054e-11
4.5199e-10
-1.00184e-09
-3.58398e-08
7.15188e-10
-1.64022e-09
1.6993e-09
-1.47081e-08
1.15862e-09
-1.86631e-11
-1.31878e-09
3.34934e-08
5.49029e-10
6.81601e-10
1.00377e-09
-5.3536e-09
1.13386e-09
-2.81291e-10
8.34059e-10
-2.67339e-08
1.06034e-10
-1.05394e-09
-4.70711e-10
-1.41469e-08
1.40038e-10
-4.23973e-10
1.74089e-10
-3.76744e-08
2.76168e-10
-9.55497e-10
9.53648e-10
-3.25694e-08
1.50237e-10
-9.99564e-10
7.49892e-09
-7.53032e-10
-3.4053e-10
-1.63097e-08
4.06407e-08
-2.38072e-08
5.60566e-08
1.95035e-08
-3.66375e-08
4.15719e-08
-1.07744e-08
-1.62285e-08
2.34124e-08
3.45736e-08
2.0605e-08
-2.36033e-08
4.84543e-08
5.57614e-08
2.73279e-09
5.32613e-08
-4.45187e-08
4.35027e-08
4.50921e-08
5.68497e-08
-2.06892e-08
8.54007e-09
5.4112e-08
1.21262e-08
-1.79444e-08
4.55424e-08
-2.43141e-08
-8.05423e-09
2.90903e-08
2.41872e-08
6.0319e-09
-2.88691e-08
3.90984e-08
4.48501e-08
-2.19231e-08
5.04842e-08
2.36529e-08
6.47515e-08
5.87702e-08
-6.88868e-09
5.88364e-10
5.36603e-08
5.12479e-08
-1.88815e-08
2.49145e-08
3.42889e-08
5.45842e-08
-1.86933e-08
1.53755e-08
6.08263e-08
3.99545e-08
-1.61725e-08
7.74532e-08
9.09728e-08
-7.51016e-09
-3.05362e-08
8.84306e-08
1.02251e-07
-6.25483e-09
3.63525e-08
7.49476e-08
-8.49329e-09
-1.29106e-08
3.91481e-08
5.72043e-08
-1.16029e-09
4.73332e-08
8.19038e-08
-3.1628e-09
9.48786e-08
8.98879e-08
1.50535e-08
-8.02702e-08
7.81008e-08
8.85662e-08
3.19735e-08
-4.52126e-08
8.54149e-08
1.83235e-08
1.71558e-08
7.90514e-08
-7.58627e-10
-4.27904e-08
5.28791e-08
4.05725e-08
1.4242e-09
1.47996e-08
7.05063e-08
-6.03385e-09
8.95961e-08
9.75694e-08
-3.70263e-09
1.16897e-07
1.0943e-07
2.46372e-08
8.74601e-09
1.88238e-08
-1.0903e-08
-1.05936e-06
-2.55921e-07
-1.26013e-07
-3.7311e-07
-8.48618e-08
-7.06025e-07
3.53511e-08
1.92218e-07
-7.06147e-07
2.6068e-07
1.72513e-07
-2.53297e-07
-9.31618e-08
2.82637e-07
-2.04451e-07
-1.65777e-07
-1.1598e-07
-1.53879e-07
-1.86886e-07
-1.02354e-07
2.85183e-07
-7.15863e-07
2.35444e-07
1.55874e-07
-4.15892e-07
2.35089e-07
8.73565e-09
1.29097e-07
-1.00883e-07
1.7794e-07
-3.45859e-07
-4.98778e-08
-1.76473e-09
-3.19583e-08
-6.25171e-07
-6.32452e-09
7.04994e-08
-5.90603e-07
-9.76253e-08
6.18605e-08
-4.17648e-07
1.62701e-07
7.47005e-08
-2.2401e-07
-7.49976e-08
1.63317e-07
-2.49881e-07
-4.14621e-07
-9.5821e-08
-8.03381e-08
-7.99986e-07
4.56012e-09
2.75428e-07
-6.17879e-07
-1.99537e-07
1.57965e-08
9.31351e-08
-7.07049e-07
6.71301e-07
-6.15886e-07
-3.25703e-07
-8.89952e-10
-1.09991e-09
6.6876e-08
-3.77489e-09
-1.23136e-09
2.38474e-08
-1.32093e-09
9.73492e-12
-5.13944e-09
1.03683e-10
9.62672e-10
-4.46506e-09
1.43149e-09
3.63411e-11
1.42619e-08
9.89676e-11
2.45196e-10
-2.98376e-10
4.5792e-09
-2.03507e-10
-8.58932e-10
7.79609e-09
-5.62033e-10
6.28745e-10
3.17853e-08
7.07522e-10
1.11778e-09
7.24824e-08
1.30622e-09
-6.69858e-10
1.08521e-07
5.04908e-11
-1.04452e-10
-1.17669e-09
8.13941e-08
1.12772e-10
-1.24231e-10
4.05094e-08
5.04221e-10
4.52421e-10
1.46058e-08
-3.14338e-10
4.00846e-10
1.16026e-08
9.789e-10
-6.04517e-10
2.33897e-08
3.19023e-10
-2.58724e-10
-8.09381e-10
7.57773e-09
-2.23054e-10
4.36252e-10
-6.95412e-10
9.57708e-10
1.90119e-09
1.59981e-08
6.72332e-10
-8.68458e-10
6.24963e-08
-1.92375e-09
1.16812e-07
-7.18446e-09
-7.47424e-09
-4.65434e-08
5.64151e-08
7.65263e-08
4.97196e-08
-3.27184e-08
2.70201e-08
3.77856e-08
-1.606e-09
5.11452e-10
3.17307e-08
2.02094e-08
3.59494e-10
2.389e-08
-9.76884e-09
1.69659e-08
1.43194e-08
1.92033e-08
4.10331e-09
7.38744e-09
2.62106e-08
2.50272e-08
1.12294e-08
3.25195e-08
4.49262e-08
3.90971e-08
3.55052e-08
4.17411e-08
7.58953e-08
3.04532e-08
-2.95424e-08
1.09659e-07
2.32728e-08
3.0152e-08
-4.48635e-08
7.70948e-08
2.73817e-08
-2.97484e-08
3.88303e-08
3.14807e-08
-4.90319e-09
1.66083e-08
3.04189e-08
1.13586e-08
1.54578e-08
2.42556e-08
-1.6824e-08
2.64706e-08
1.55635e-08
1.07848e-08
-7.98692e-09
9.61351e-09
1.72798e-08
1.82147e-08
4.99024e-09
2.94062e-08
5.19857e-08
2.80994e-08
3.92032e-08
6.14629e-08
7.49021e-08
3.96541e-08
1.19919e-07
3.40948e-08
3.41974e-08
-9.6701e-08
9.99363e-08
4.75469e-08
8.2857e-08
-6.10488e-08
2.07464e-08
5.97691e-08
-3.03389e-09
6.99294e-09
5.13268e-08
3.45991e-08
4.86946e-09
3.52187e-08
-1.78687e-08
9.43079e-09
1.86615e-08
2.76586e-08
9.4674e-09
1.15085e-08
3.82096e-08
5.35391e-08
1.51556e-08
5.1782e-08
8.33502e-08
2.83178e-08
5.45389e-08
7.48146e-08
3.72127e-08
4.65797e-08
-6.34428e-08
5.10778e-08
3.81524e-08
3.84575e-08
-8.32114e-08
4.09182e-08
3.51138e-08
-5.15744e-08
2.52997e-08
4.3566e-08
-6.63903e-09
1.44193e-08
4.6031e-08
2.0549e-08
9.36614e-09
3.62634e-08
-3.30065e-08
1.14151e-08
2.2542e-08
1.50011e-08
-1.05786e-08
1.05097e-08
2.66185e-08
4.2555e-08
1.22478e-08
5.00425e-08
9.90586e-08
2.67878e-08
6.81304e-08
1.06588e-07
4.78928e-08
6.70283e-08
5.86694e-08
5.46371e-08
4.68805e-08
-6.05686e-09
3.43172e-09
6.76703e-08
6.95954e-08
4.07054e-08
4.4178e-08
7.08309e-08
2.79291e-08
7.7088e-08
4.97372e-08
9.55566e-08
1.11192e-07
-3.15667e-08
1.16391e-07
1.23715e-07
4.3719e-08
8.77875e-08
-1.06802e-08
4.18222e-08
6.60305e-08
6.31216e-08
9.78847e-08
1.0904e-07
1.00615e-07
-9.09561e-08
8.19719e-08
9.60999e-08
-5.9952e-08
8.98586e-08
1.4394e-08
8.9696e-08
-4.83611e-08
5.71846e-08
4.57495e-08
1.94807e-08
8.65091e-08
1.13893e-07
1.23107e-07
1.36541e-07
1.30365e-07
-1.20407e-07
1.1092e-07
8.31874e-08
-7.40315e-08
6.025e-08
-6.4407e-09
5.48196e-08
3.53616e-08
3.45014e-08
-1.20193e-08
1.21632e-08
2.59097e-08
1.47247e-08
3.71446e-08
6.39755e-08
5.84256e-08
9.19859e-08
6.05023e-08
8.62964e-08
4.57516e-08
-7.20931e-08
2.9861e-08
3.34233e-08
-9.73671e-08
3.05548e-08
-6.21524e-08
3.91986e-08
-1.21591e-08
4.58165e-08
1.96685e-08
3.57037e-08
-2.9903e-08
1.50922e-08
1.23261e-08
-3.51987e-09
2.5688e-08
5.64107e-08
5.66657e-08
1.16794e-07
7.6929e-08
1.1709e-07
6.98185e-08
5.85878e-08
4.3718e-08
-1.20713e-06
4.07379e-06
-3.1633e-06
6.28985e-07
-1.90255e-06
3.44877e-07
-7.99012e-07
1.74554e-07
-6.62618e-07
-1.32859e-07
1.05465e-07
-3.9245e-08
-1.74133e-07
1.97068e-07
-4.61534e-07
-1.78783e-07
-2.23173e-07
-1.70027e-07
-3.64647e-07
2.2377e-07
-5.58361e-07
2.62404e-07
-5.3135e-07
-1.56572e-07
2.90466e-07
-1.37677e-07
6.30399e-08
2.7709e-07
-4.30796e-07
-1.30472e-07
-6.77435e-08
-3.43126e-07
-4.66394e-08
-2.6352e-08
-5.24315e-07
2.39848e-07
-7.15638e-07
-1.0828e-07
1.53447e-07
-1.13084e-07
-1.12479e-07
2.25148e-07
-5.81884e-07
-8.86069e-08
-4.05648e-07
-1.90335e-07
-5.01103e-07
-3.69123e-07
-2.00615e-07
-1.73648e-07
-2.33356e-07
1.16055e-06
-8.49769e-07
3.76652e-06
-3.31408e-06
3.44175e-06
-1.36266e-09
1.30286e-08
1.51194e-07
3.03131e-09
1.14417e-07
1.153e-09
5.71505e-08
1.45064e-09
2.22579e-08
-1.83202e-10
1.61274e-08
-6.61205e-10
2.71507e-08
3.14246e-10
3.19398e-08
-2.32911e-10
3.07498e-08
-4.73672e-10
2.71347e-08
3.67015e-10
3.58229e-08
1.5441e-09
6.11249e-08
-2.44912e-10
9.73085e-08
-1.12683e-09
1.29291e-07
6.06083e-10
1.39828e-07
2.21675e-11
1.32951e-07
-9.63662e-10
1.02688e-07
-2.70632e-11
6.52253e-08
1.43332e-09
4.01873e-08
-2.29334e-10
3.19985e-08
-1.03523e-09
3.67612e-08
2.30694e-10
3.68757e-08
1.19763e-10
3.25952e-08
4.73856e-10
2.25958e-08
-2.20957e-10
2.4374e-08
-2.35618e-09
5.09635e-08
6.96549e-11
9.89619e-08
1.25965e-08
1.50048e-07
1.70527e-07
-4.14856e-08
3.87997e-08
1.42016e-07
-5.77352e-08
1.09504e-07
-3.9064e-08
4.92024e-08
-7.58046e-09
1.89514e-08
8.60427e-09
1.18426e-08
4.08163e-09
2.02741e-08
-3.98995e-10
2.80962e-08
-1.12485e-10
2.51459e-08
9.2229e-09
1.92473e-08
2.74223e-08
3.08533e-08
4.10851e-08
5.92111e-08
3.46802e-08
9.17477e-08
1.22829e-08
1.21749e-07
-7.98605e-09
1.30188e-07
-3.25223e-08
1.17688e-07
-4.22021e-08
8.44708e-08
-2.98044e-08
5.17439e-08
-9.40323e-09
3.23173e-08
2.05117e-10
2.72865e-08
-6.92702e-10
3.18501e-08
-3.47332e-09
3.71726e-08
-7.97035e-09
3.05179e-08
3.86001e-09
1.91339e-08
2.82816e-08
2.53616e-08
5.18959e-08
5.66833e-08
5.73317e-08
1.0191e-07
4.06962e-08
1.34221e-07
1.38821e-07
-7.28114e-08
3.99365e-08
6.37636e-08
-1.14652e-07
4.72162e-08
-7.03733e-08
2.16751e-08
-1.51744e-08
1.23267e-08
1.57352e-08
5.47928e-09
1.22493e-08
4.62482e-09
-4.42881e-09
6.33076e-09
-3.69996e-09
8.41136e-09
2.05211e-08
1.16631e-08
5.61048e-08
2.30295e-08
7.62018e-08
3.5188e-08
6.55454e-08
3.79354e-08
2.17938e-08
4.54196e-08
-2.19801e-08
5.08715e-08
-6.65849e-08
4.58436e-08
-7.49218e-08
3.32936e-08
-4.91225e-08
2.16057e-08
-1.3945e-08
1.50147e-08
5.81652e-09
9.50544e-09
4.10888e-09
7.44991e-09
-1.12547e-08
1.00894e-08
-1.79397e-08
1.01737e-08
1.06885e-08
1.06113e-08
6.06861e-08
2.01578e-08
9.67479e-08
3.62496e-08
8.84391e-08
5.12344e-08
4.751e-08
5.52596e-08
4.45431e-08
-8.90532e-08
2.24919e-08
-1.36822e-07
-7.97302e-08
-2.20858e-08
1.11866e-08
1.18821e-08
-5.49712e-10
3.44157e-09
3.29891e-08
6.65674e-08
7.80303e-08
7.02234e-08
2.63368e-08
-2.60028e-08
-7.68702e-08
-8.55777e-08
-5.58352e-08
-2.10201e-08
1.03394e-10
5.52954e-09
-8.84457e-09
-1.27471e-08
2.04459e-08
7.58566e-08
1.10165e-07
9.02754e-08
3.31422e-08
-4.20636e-08
-1.21607e-08
-8.18295e-07
3.69286e-07
-1.30373e-06
2.20376e-07
-1.08164e-06
-9.61696e-07
-6.22743e-10
-5.1695e-10
-7.12228e-11
-3.8765e-10
)
;

boundaryField
{
    top_fluid_surface
    {
        type            calculated;
        value           nonuniform List<scalar> 
64
(
9.67126e-08
1.06964e-06
6.66028e-07
7.39319e-07
1.97682e-06
3.39737e-07
1.69365e-06
6.54839e-07
2.96348e-07
7.80107e-07
6.38562e-07
-9.95685e-08
1.63066e-07
2.03588e-07
1.23754e-06
1.19339e-06
4.645e-07
1.80233e-07
4.63263e-07
1.28752e-06
5.7572e-07
-1.59729e-07
1.20744e-09
1.06605e-06
9.5402e-07
6.60015e-07
3.73903e-07
5.01154e-07
1.27003e-06
1.16388e-06
-9.4492e-09
-9.10336e-07
4.47581e-06
3.43473e-06
1.35079e-06
1.04481e-06
-1.33375e-07
4.25373e-07
7.25588e-07
2.18218e-07
5.80469e-07
1.0052e-06
7.7802e-07
-5.48139e-07
-3.10953e-08
6.79304e-07
1.52284e-08
6.82036e-08
9.10399e-07
1.17051e-06
-2.34868e-07
2.90136e-07
9.15241e-07
4.73383e-07
7.11642e-07
4.91116e-07
7.87966e-07
1.81916e-06
4.43569e-06
-8.02029e-06
1.2344e-06
1.90494e-06
1.53617e-06
1.00687e-06
)
;
    }
    bottom_fluid_surface
    {
        type            calculated;
        value           uniform 0;
    }
    lateral_surface_1
    {
        type            calculated;
        value           uniform 0;
    }
    lateral_surface_2
    {
        type            calculated;
        value           uniform 0;
    }
    lateral_surface_3
    {
        type            calculated;
        value           uniform 0;
    }
    lateral_surface_4
    {
        type            calculated;
        value           uniform 0;
    }
}


// ************************************************************************* //
