/*--------------------------------*- C++ -*----------------------------------*\
| =========                 |                                                 |
| \\      /  F ield         | OpenFOAM: The Open Source CFD Toolbox           |
|  \\    /   O peration     | Version:  v1612+                                |
|   \\  /    A nd           | Web:      www.OpenFOAM.com                      |
|    \\/     M anipulation  |                                                 |
\*---------------------------------------------------------------------------*/
FoamFile
{
    version     2.0;
    format      ascii;
    class       volVectorField;
    location    "0.005";
    object      U;
}
// * * * * * * * * * * * * * * * * * * * * * * * * * * * * * * * * * * * * * //

dimensions      [0 1 -1 0 0 0 0];

internalField   nonuniform List<vector> 
320
(
(-1.52687e-08 -1.50758e-08 5.61853e-08)
(8.61333e-09 -2.18069e-09 6.13009e-08)
(-6.12425e-09 1.42571e-08 5.6772e-08)
(2.00885e-08 2.89329e-08 4.98102e-08)
(-2.77311e-07 -1.32082e-07 1.45453e-07)
(-1.59596e-07 1.11252e-07 1.13514e-06)
(1.90612e-07 4.31146e-08 6.73602e-07)
(-4.14682e-08 -7.19495e-08 7.45331e-07)
(-5.71092e-07 5.28555e-08 2.12293e-06)
(1.02299e-07 3.27649e-07 3.32336e-07)
(-9.50144e-09 -5.14406e-07 1.85577e-06)
(-2.61004e-08 -1.113e-07 7.03385e-07)
(-1.37892e-07 7.50787e-09 2.92637e-07)
(1.67773e-07 1.25194e-08 8.36791e-07)
(1.47224e-07 -2.22306e-07 6.86987e-07)
(7.07464e-08 3.70534e-08 -1.0245e-07)
(-9.60276e-10 -9.66562e-10 1.81555e-08)
(-3.68553e-10 -8.94254e-10 2.73607e-08)
(7.21551e-10 4.42849e-10 1.57975e-08)
(1.6463e-09 -1.37738e-09 2.27176e-08)
(5.17555e-10 3.6014e-10 1.29111e-08)
(1.10752e-09 1.73008e-09 -1.68333e-08)
(3.8055e-10 6.70872e-10 6.97927e-09)
(-1.53704e-09 7.81585e-10 1.71362e-08)
(2.24744e-11 1.3388e-10 9.40398e-09)
(-5.02057e-10 3.81831e-10 2.34721e-08)
(-2.86434e-10 -7.16936e-10 2.0657e-08)
(-2.80289e-10 -6.16574e-10 -1.8537e-09)
(-2.94917e-08 -4.38578e-08 2.96848e-08)
(2.19838e-09 -3.13245e-08 4.51074e-08)
(2.93295e-08 -1.85889e-08 2.33309e-08)
(3.95575e-08 2.81438e-09 3.35515e-08)
(4.53323e-08 3.96038e-08 8.27544e-09)
(4.62285e-08 5.87952e-08 -3.98663e-08)
(3.396e-08 5.14626e-08 3.73818e-10)
(2.39861e-09 3.99982e-08 2.56147e-08)
(-2.03536e-08 2.84338e-08 1.30493e-08)
(-3.09094e-08 1.12656e-08 3.71374e-08)
(-3.77809e-08 -2.55481e-08 3.08623e-08)
(-5.11934e-08 -5.65226e-08 -1.50853e-08)
(-3.1822e-08 -2.85832e-08 3.45616e-08)
(2.33003e-08 -5.28868e-09 3.57022e-08)
(-1.3502e-08 3.12167e-08 3.2087e-08)
(4.82466e-08 6.11553e-08 2.17123e-08)
(-6.11529e-08 -8.37642e-08 1.39421e-08)
(5.98533e-09 -5.85975e-08 2.06816e-08)
(5.16841e-08 -3.03325e-08 6.22339e-09)
(7.2466e-08 1.36781e-08 1.06195e-08)
(8.74656e-08 7.37779e-08 -1.2501e-08)
(8.10771e-08 9.52207e-08 -3.96666e-08)
(6.58616e-08 9.28668e-08 -1.65126e-08)
(1.11384e-08 7.38742e-08 6.34781e-09)
(-3.43957e-08 5.15169e-08 1.35191e-09)
(-5.84348e-08 1.81949e-08 1.54761e-08)
(-7.8547e-08 -5.29396e-08 1.08367e-08)
(-1.02143e-07 -1.07113e-07 -2.68532e-08)
(-1.98402e-08 9.28387e-07 1.07467e-07)
(-5.30264e-08 2.6445e-07 2.14394e-07)
(-2.73988e-07 2.05957e-09 1.26628e-06)
(6.047e-08 -1.26595e-07 1.23129e-06)
(2.74233e-07 1.98062e-07 4.71582e-07)
(2.84357e-08 9.31422e-09 2.22973e-07)
(-4.13965e-08 -2.98338e-07 4.44449e-07)
(1.29147e-07 1.09013e-07 1.3112e-06)
(2.31015e-07 2.61372e-07 6.45955e-07)
(-1.6026e-07 1.41104e-07 -1.73781e-07)
(2.04686e-07 1.37513e-07 6.52035e-08)
(2.34303e-07 -6.766e-08 1.1012e-06)
(-1.13552e-07 -9.85239e-08 9.98059e-07)
(-3.10833e-08 1.02839e-07 6.95404e-07)
(-1.24445e-07 -1.46021e-07 3.89176e-07)
(2.71287e-09 8.75564e-08 5.87967e-07)
(5.16584e-08 2.48681e-07 1.33406e-06)
(2.61317e-07 -1.23926e-07 1.17383e-06)
(6.26783e-07 -2.99146e-07 -6.40883e-08)
(9.57204e-08 3.50434e-07 -9.98127e-07)
(-1.19268e-09 2.67118e-09 -3.59026e-08)
(-1.10578e-09 9.87681e-10 -1.22959e-08)
(-7.42912e-10 -3.60858e-11 4.51116e-09)
(7.34225e-10 -6.9869e-10 4.08561e-09)
(6.65698e-10 -8.88879e-12 -7.23166e-09)
(3.34592e-11 1.78187e-11 -1.77824e-09)
(-2.36549e-10 -7.89892e-10 -3.65213e-09)
(1.14691e-09 -3.1052e-10 -1.58986e-08)
(6.53646e-10 1.22361e-09 -3.9147e-08)
(2.69928e-10 4.07747e-10 -6.01417e-08)
(1.0703e-09 1.00631e-10 -4.55564e-08)
(6.98554e-10 9.86593e-10 -2.19723e-08)
(-2.92244e-10 -4.19407e-10 -6.9052e-09)
(-5.77801e-10 4.37732e-10 -4.95414e-09)
(-2.38678e-12 4.54963e-10 -1.19497e-08)
(4.83703e-10 8.57329e-10 -3.07948e-09)
(-4.14143e-10 3.3718e-10 2.12709e-09)
(-2.601e-10 -1.27422e-09 -6.4984e-09)
(1.27889e-09 -1.87281e-09 -3.31087e-08)
(4.77831e-09 4.62881e-09 -6.517e-08)
(-5.28939e-08 -5.99444e-08 -7.56345e-08)
(-4.04668e-08 -5.00339e-08 -2.66123e-08)
(-1.66555e-08 -3.93813e-08 3.59763e-09)
(1.18033e-08 -2.54236e-08 2.77614e-09)
(2.18362e-08 -1.38422e-08 -1.67558e-08)
(3.19015e-08 -3.57022e-09 -5.85519e-09)
(4.29762e-08 1.3822e-08 -9.51877e-09)
(4.69005e-08 3.56038e-08 -3.71379e-08)
(3.84041e-08 4.45045e-08 -7.95958e-08)
(2.70095e-08 3.67257e-08 -1.17233e-07)
(3.83741e-08 4.29661e-08 -8.52152e-08)
(3.88855e-08 4.45838e-08 -4.23858e-08)
(1.69046e-08 3.97664e-08 -1.63207e-08)
(-5.07563e-09 2.78142e-08 -1.42456e-08)
(-1.26617e-08 1.73738e-08 -2.67898e-08)
(-2.18e-08 1.41644e-08 -8.80342e-09)
(-3.65684e-08 -3.17023e-09 -1.16073e-09)
(-4.79123e-08 -3.53597e-08 -2.20752e-08)
(-5.15608e-08 -5.89707e-08 -7.21784e-08)
(-4.67959e-08 -4.94089e-08 -1.26868e-07)
(-1.01448e-07 -1.03706e-07 -6.40903e-08)
(-8.03379e-08 -8.67651e-08 -2.50928e-08)
(-3.01313e-08 -6.77909e-08 -4.95841e-09)
(2.10876e-08 -3.97684e-08 -3.69241e-09)
(3.45892e-08 -2.10041e-08 -1.37726e-08)
(4.94525e-08 -7.21918e-09 -1.07774e-08)
(6.97362e-08 3.04928e-08 -1.46909e-08)
(7.4099e-08 6.97665e-08 -3.51361e-08)
(6.31987e-08 8.13183e-08 -5.81531e-08)
(5.15598e-08 5.71368e-08 -8.24303e-08)
(7.59171e-08 6.25565e-08 -6.00496e-08)
(6.95931e-08 6.55815e-08 -3.30232e-08)
(2.78479e-08 6.50277e-08 -1.66502e-08)
(-1.10469e-08 4.59481e-08 -1.33635e-08)
(-2.03304e-08 2.97746e-08 -1.98847e-08)
(-3.53969e-08 2.64864e-08 -1.11326e-08)
(-6.38248e-08 -1.29346e-08 -1.03161e-08)
(-8.79512e-08 -7.22919e-08 -2.97449e-08)
(-9.14422e-08 -1.06665e-07 -6.36585e-08)
(-7.54768e-08 -8.30233e-08 -9.17459e-08)
(-4.01342e-08 -3.32206e-08 8.61726e-09)
(3.25554e-08 -3.2114e-09 8.4239e-09)
(-1.23605e-08 4.24709e-08 6.83977e-09)
(6.46765e-08 8.11477e-08 3.59008e-12)
(-7.70265e-08 -1.03512e-07 2.20232e-09)
(9.91713e-09 -7.19851e-08 2.08087e-09)
(6.07885e-08 -3.29008e-08 -1.72949e-09)
(8.99506e-08 2.15387e-08 -6.37801e-10)
(1.02181e-07 8.98899e-08 -9.59014e-09)
(8.7869e-08 1.06344e-07 -1.67498e-08)
(7.99744e-08 1.06198e-07 -1.15685e-08)
(2.02631e-08 8.87354e-08 -2.63696e-09)
(-3.78339e-08 5.72734e-08 -2.44373e-09)
(-7.33125e-08 2.07504e-08 1.14513e-09)
(-1.02087e-07 -6.78775e-08 1.11757e-10)
(-1.28794e-07 -1.3145e-07 -1.37927e-08)
(-1.19547e-07 -1.13155e-07 -2.42245e-08)
(-9.95987e-08 -1.00097e-07 -1.11307e-08)
(-3.80559e-08 -7.63644e-08 -4.96366e-09)
(2.06175e-08 -4.05398e-08 -3.20613e-09)
(3.47507e-08 -1.45835e-08 -4.49357e-09)
(5.3667e-08 -2.652e-09 -7.02352e-09)
(8.13612e-08 3.81808e-08 -9.06075e-09)
(8.24157e-08 7.9066e-08 -1.47115e-08)
(6.4508e-08 9.17987e-08 -1.83603e-08)
(5.11179e-08 6.1068e-08 -2.51919e-08)
(8.77813e-08 6.24558e-08 -2.07132e-08)
(8.22849e-08 6.51878e-08 -1.33277e-08)
(3.65643e-08 7.03192e-08 -8.02139e-09)
(-8.31016e-09 4.75439e-08 -4.61137e-09)
(-1.98093e-08 2.48586e-08 -5.28463e-09)
(-3.85071e-08 2.3733e-08 -6.0752e-09)
(-7.58493e-08 -2.17826e-08 -8.03798e-09)
(-1.06677e-07 -8.87021e-08 -1.49232e-08)
(-1.03401e-07 -1.20972e-07 -2.44482e-08)
(-7.82063e-08 -9.00772e-08 -2.92295e-08)
(-3.18601e-06 4.78438e-07 4.91515e-06)
(1.56731e-07 6.70922e-07 3.49711e-06)
(6.49016e-07 3.01867e-07 1.39758e-06)
(2.31448e-07 -3.11205e-08 1.10111e-06)
(-5.39042e-09 -2.0357e-07 -1.51681e-07)
(-1.32848e-07 3.47399e-08 4.12147e-07)
(1.46786e-08 2.03512e-07 7.67805e-07)
(1.8345e-07 3.46888e-08 2.91365e-07)
(-1.48695e-07 -2.72515e-07 6.11708e-07)
(-9.83789e-08 2.87618e-08 1.02328e-06)
(1.78405e-07 3.25267e-07 8.46876e-07)
(1.17874e-07 3.82425e-08 -5.52322e-07)
(-4.47245e-08 -2.19204e-07 -4.44641e-08)
(-2.42433e-07 -6.46333e-08 7.31064e-07)
(-1.25702e-07 1.33075e-07 9.71058e-08)
(3.11063e-07 -9.91914e-08 9.41933e-08)
(2.26535e-07 2.66988e-08 9.36844e-07)
(-1.96599e-07 -9.14243e-08 1.22132e-06)
(-9.03943e-08 1.09746e-07 -2.47933e-07)
(1.92448e-07 -3.21133e-08 2.79026e-07)
(5.40384e-08 -2.07147e-07 9.67546e-07)
(-1.20995e-07 -8.68956e-08 5.68573e-07)
(1.13164e-07 1.83611e-07 7.79054e-07)
(-2.49401e-08 2.71124e-07 4.74309e-07)
(1.35607e-07 3.52818e-07 6.88206e-07)
(4.51804e-07 -1.28543e-07 1.80322e-06)
(3.0621e-07 -2.88441e-06 4.98149e-06)
(-2.78304e-06 -2.61081e-06 -7.79407e-06)
(-8.10518e-09 5.43485e-09 -8.28681e-08)
(3.36084e-09 2.71873e-09 -6.27265e-08)
(1.74699e-09 8.81323e-10 -3.21429e-08)
(1.31782e-09 -1.34046e-10 -1.20227e-08)
(6.94354e-10 -1.17941e-09 -9.49956e-09)
(-7.86639e-10 -9.41748e-11 -1.58185e-08)
(-3.70337e-10 2.7293e-10 -1.75541e-08)
(-3.23285e-12 1.21409e-10 -1.74763e-08)
(-2.4004e-10 -4.59399e-10 -1.60756e-08)
(-4.8045e-10 -2.6393e-10 -2.03e-08)
(2.85922e-10 1.25034e-09 -3.38602e-08)
(1.08041e-09 8.53099e-10 -5.50064e-08)
(-8.45926e-11 -1.06418e-09 -7.27262e-08)
(-3.91526e-10 -7.10895e-10 -7.86603e-08)
(-5.1117e-10 -4.03962e-10 -7.57315e-08)
(5.28676e-10 7.02024e-11 -5.96619e-08)
(9.00588e-10 1.37658e-10 -3.76722e-08)
(-9.88178e-10 -1.31831e-10 -2.27287e-08)
(-8.51896e-10 8.33593e-10 -1.83074e-08)
(1.02303e-09 1.42263e-10 -2.05993e-08)
(6.34483e-10 -1.91827e-10 -1.9365e-08)
(3.00392e-10 -1.01598e-10 -1.74914e-08)
(7.79217e-11 -2.77876e-10 -1.23987e-08)
(-8.34813e-10 -3.61972e-10 -1.31479e-08)
(-6.2123e-10 9.76094e-10 -2.75166e-08)
(1.4155e-09 4.42183e-09 -5.40413e-08)
(5.67342e-09 -6.71289e-09 -8.27942e-08)
(-9.9262e-09 -1.01648e-08 -1.01648e-07)
(-4.21077e-08 -1.72197e-08 -1.5983e-07)
(-5.05685e-08 -2.61529e-08 -1.21463e-07)
(-5.00548e-08 -1.95451e-08 -5.8068e-08)
(-2.24119e-08 -1.6565e-08 -2.26475e-08)
(3.79041e-09 -1.37887e-08 -1.57388e-08)
(7.92171e-09 -8.55208e-09 -2.68504e-08)
(1.75031e-09 1.25731e-10 -3.37823e-08)
(1.04281e-08 -1.44381e-09 -3.11473e-08)
(1.41487e-08 2.55112e-09 -2.60882e-08)
(1.65495e-08 1.78133e-08 -3.64212e-08)
(1.814e-08 3.50317e-08 -6.46766e-08)
(1.59773e-08 3.89042e-08 -1.02411e-07)
(1.25397e-08 2.34347e-08 -1.36505e-07)
(2.68638e-09 5.86955e-09 -1.46929e-07)
(1.88727e-08 1.57229e-08 -1.36325e-07)
(3.83704e-08 1.40063e-08 -1.02322e-07)
(3.71598e-08 1.57266e-08 -6.42211e-08)
(1.91682e-08 1.57321e-08 -3.98323e-08)
(2.03901e-09 1.3463e-08 -3.24611e-08)
(-8.65125e-10 8.61743e-09 -3.81231e-08)
(1.28835e-09 1.66639e-09 -4.09149e-08)
(-5.66269e-09 6.87934e-09 -3.45736e-08)
(-9.20609e-09 4.52717e-09 -2.28313e-08)
(-1.52999e-08 -1.48467e-08 -2.62732e-08)
(-2.08826e-08 -4.05406e-08 -5.68287e-08)
(-2.04807e-08 -5.54062e-08 -1.07806e-07)
(-1.7318e-08 -5.04913e-08 -1.5589e-07)
(-2.15631e-08 -2.14647e-08 -1.69837e-07)
(-5.64794e-08 -2.75279e-08 -1.04327e-07)
(-9.84017e-08 -4.31095e-08 -8.00636e-08)
(-9.70682e-08 -3.05744e-08 -3.61211e-08)
(-4.10114e-08 -2.63791e-08 -1.63015e-08)
(4.89731e-09 -1.96943e-08 -8.89283e-09)
(1.72569e-08 -1.01888e-08 -1.15187e-08)
(6.56154e-09 -2.36204e-09 -1.6305e-08)
(1.43883e-08 -7.57271e-09 -1.6607e-08)
(1.99929e-08 4.81451e-09 -1.55421e-08)
(2.6422e-08 3.83245e-08 -2.77655e-08)
(2.78247e-08 6.72404e-08 -4.80162e-08)
(2.38959e-08 7.26816e-08 -6.57704e-08)
(1.91879e-08 4.3453e-08 -8.4158e-08)
(1.02122e-08 9.71251e-09 -9.14908e-08)
(4.40952e-08 1.86883e-08 -8.24954e-08)
(7.26324e-08 1.71771e-08 -5.91563e-08)
(6.33904e-08 2.1973e-08 -3.71166e-08)
(3.07718e-08 2.33799e-08 -2.4205e-08)
(8.57341e-10 1.90491e-08 -1.83778e-08)
(-7.43076e-09 1.14756e-08 -1.86174e-08)
(-2.15734e-09 6.14955e-09 -2.34124e-08)
(-7.48339e-09 1.7982e-08 -2.05111e-08)
(-1.39499e-08 8.02249e-09 -1.53552e-08)
(-2.59473e-08 -3.43594e-08 -2.38048e-08)
(-3.53747e-08 -8.05571e-08 -4.79279e-08)
(-3.42124e-08 -9.46391e-08 -7.8693e-08)
(-2.33485e-08 -6.87434e-08 -9.55007e-08)
(-1.99326e-08 -2.4112e-08 -8.96631e-08)
(-5.17072e-08 -2.98005e-08 -3.15021e-08)
(-1.18774e-07 -4.21262e-08 -2.32412e-08)
(-1.13817e-07 -3.05734e-08 -1.11298e-08)
(-4.96402e-08 -2.79081e-08 -6.49261e-09)
(-9.9243e-10 -1.89891e-08 -2.50094e-09)
(1.53339e-08 -6.29811e-09 -6.02862e-10)
(6.53668e-09 4.27661e-10 -5.78007e-10)
(1.32625e-08 -2.20677e-09 -3.36771e-09)
(1.89134e-08 1.37096e-08 -5.94394e-09)
(2.96241e-08 5.02874e-08 -1.22628e-08)
(3.102e-08 7.30367e-08 -1.79068e-08)
(2.35947e-08 7.5046e-08 -1.80591e-08)
(1.42673e-08 4.91551e-08 -2.02713e-08)
(1.16818e-08 1.32024e-08 -2.37612e-08)
(5.12072e-08 1.57879e-08 -2.22916e-08)
(8.37493e-08 1.31131e-08 -1.66491e-08)
(7.2111e-08 1.982e-08 -1.11747e-08)
(3.7907e-08 2.32869e-08 -7.92847e-09)
(7.62662e-09 1.84773e-08 -4.03952e-09)
(-5.89968e-09 7.35016e-09 -1.15919e-09)
(-3.50659e-09 4.56765e-09 -2.50844e-09)
(-6.2891e-09 1.49365e-08 -4.09034e-09)
(-1.34287e-08 1.23347e-09 -5.55395e-09)
(-2.87887e-08 -4.74194e-08 -1.08794e-08)
(-3.90655e-08 -9.54288e-08 -1.8614e-08)
(-3.55153e-08 -1.02979e-07 -2.57511e-08)
(-2.10729e-08 -6.14614e-08 -2.69539e-08)
(-6.89953e-09 -1.56271e-08 -1.8469e-08)
(2.11727e-08 -2.68996e-08 1.31304e-06)
(-9.87918e-08 4.63366e-07 2.04928e-06)
(4.08361e-07 -3.64349e-08 1.66834e-06)
(-2.04646e-07 -3.47536e-08 1.25767e-06)
(-1.38346e-09 -1.49599e-09 3.14298e-08)
(6.66498e-10 -5.85896e-10 3.59469e-08)
(-8.29235e-10 6.46088e-10 3.32043e-08)
(-2.49942e-10 2.28256e-10 3.00048e-08)
)
;

boundaryField
{
    top_fluid_surface
    {
        type            pressureInletOutletVelocity;
        value           nonuniform List<vector> 
64
(
(-2.77311e-07 -1.32082e-07 1.45453e-07)
(-1.59596e-07 1.11252e-07 1.13514e-06)
(1.90612e-07 4.31146e-08 6.73602e-07)
(-4.14682e-08 -7.19495e-08 7.45331e-07)
(-5.71092e-07 5.28555e-08 2.12293e-06)
(1.02299e-07 3.27649e-07 3.32336e-07)
(-9.50144e-09 -5.14406e-07 1.85577e-06)
(-2.61004e-08 -1.113e-07 7.03385e-07)
(-1.37892e-07 7.50787e-09 2.92637e-07)
(1.67773e-07 1.25194e-08 8.36791e-07)
(1.47224e-07 -2.22306e-07 6.86987e-07)
(0 0 -1.0245e-07)
(-1.98402e-08 9.28387e-07 1.07467e-07)
(-5.30264e-08 2.6445e-07 2.14394e-07)
(-2.73988e-07 2.05957e-09 1.26628e-06)
(6.047e-08 -1.26595e-07 1.23129e-06)
(2.74233e-07 1.98062e-07 4.71582e-07)
(2.84357e-08 9.31422e-09 2.22973e-07)
(-4.13965e-08 -2.98338e-07 4.44449e-07)
(1.29147e-07 1.09013e-07 1.3112e-06)
(2.31015e-07 2.61372e-07 6.45955e-07)
(0 0 -1.73781e-07)
(2.04686e-07 1.37513e-07 6.52035e-08)
(2.34303e-07 -6.766e-08 1.1012e-06)
(-1.13552e-07 -9.85239e-08 9.98059e-07)
(-3.10833e-08 1.02839e-07 6.95404e-07)
(-1.24445e-07 -1.46021e-07 3.89176e-07)
(2.71287e-09 8.75564e-08 5.87967e-07)
(5.16584e-08 2.48681e-07 1.33406e-06)
(2.61317e-07 -1.23926e-07 1.17383e-06)
(0 0 -6.40883e-08)
(0 0 -9.98127e-07)
(-3.18601e-06 4.78438e-07 4.91515e-06)
(1.56731e-07 6.70922e-07 3.49711e-06)
(6.49016e-07 3.01867e-07 1.39758e-06)
(2.31448e-07 -3.11205e-08 1.10111e-06)
(0 0 -1.51681e-07)
(-1.32848e-07 3.47399e-08 4.12147e-07)
(1.46786e-08 2.03512e-07 7.67805e-07)
(1.8345e-07 3.46888e-08 2.91365e-07)
(-1.48695e-07 -2.72515e-07 6.11708e-07)
(-9.83789e-08 2.87618e-08 1.02328e-06)
(1.78405e-07 3.25267e-07 8.46876e-07)
(0 0 -5.52322e-07)
(0 0 -4.44641e-08)
(-2.42433e-07 -6.46333e-08 7.31064e-07)
(-1.25702e-07 1.33075e-07 9.71058e-08)
(3.11063e-07 -9.91914e-08 9.41933e-08)
(2.26535e-07 2.66988e-08 9.36844e-07)
(-1.96599e-07 -9.14243e-08 1.22132e-06)
(0 0 -2.47933e-07)
(1.92448e-07 -3.21133e-08 2.79026e-07)
(5.40384e-08 -2.07147e-07 9.67546e-07)
(-1.20995e-07 -8.68956e-08 5.68573e-07)
(1.13164e-07 1.83611e-07 7.79054e-07)
(-2.49401e-08 2.71124e-07 4.74309e-07)
(1.35607e-07 3.52818e-07 6.88206e-07)
(4.51804e-07 -1.28543e-07 1.80322e-06)
(3.0621e-07 -2.88441e-06 4.98149e-06)
(0 0 -7.79407e-06)
(2.11727e-08 -2.68996e-08 1.31304e-06)
(-9.87918e-08 4.63366e-07 2.04928e-06)
(4.08361e-07 -3.64349e-08 1.66834e-06)
(-2.04646e-07 -3.47536e-08 1.25767e-06)
)
;
    }
    bottom_fluid_surface
    {
        type            noSlip;
    }
    lateral_surface_1
    {
        type            noSlip;
    }
    lateral_surface_2
    {
        type            noSlip;
    }
    lateral_surface_3
    {
        type            noSlip;
    }
    lateral_surface_4
    {
        type            noSlip;
    }
}


// ************************************************************************* //
