/*--------------------------------*- C++ -*----------------------------------*\
| =========                 |                                                 |
| \\      /  F ield         | OpenFOAM: The Open Source CFD Toolbox           |
|  \\    /   O peration     | Version:  v1612+                                |
|   \\  /    A nd           | Web:      www.OpenFOAM.com                      |
|    \\/     M anipulation  |                                                 |
\*---------------------------------------------------------------------------*/
FoamFile
{
    version     2.0;
    format      ascii;
    class       surfaceScalarField;
    location    "0.005";
    object      phi;
}
// * * * * * * * * * * * * * * * * * * * * * * * * * * * * * * * * * * * * * //

dimensions      [0 3 -1 0 0 0 0];

internalField   nonuniform List<scalar> 
816
(
3.94015e-09
1.84639e-09
-6.07443e-09
-5.59357e-09
-1.00109e-08
1.82124e-08
-7.75421e-09
-3.69212e-09
-7.87101e-09
-1.09809e-08
1.66523e-08
-4.77404e-09
-1.30472e-08
-5.63691e-09
-1.06976e-08
1.80724e-08
-1.06691e-08
-1.75174e-08
-1.69067e-08
4.02003e-09
-1.53222e-07
-2.10027e-07
9.97404e-08
-2.08471e-07
6.38272e-08
-2.02564e-07
1.85703e-07
-2.99841e-07
4.30798e-07
-1.06316e-07
2.14707e-08
1.92674e-07
2.79374e-07
2.14294e-07
1.65892e-08
-1.26029e-07
-5.56471e-08
-1.99531e-07
7.92357e-07
-8.53783e-07
-2.5552e-06
1.09559e-07
-8.50324e-08
9.57635e-08
6.20351e-08
-2.49834e-07
8.55981e-07
-1.08208e-06
-2.65459e-06
2.72985e-08
1.22594e-07
-9.82556e-08
-2.43931e-07
1.89838e-07
-7.01089e-08
1.83175e-07
2.51599e-07
-5.82638e-08
8.54471e-08
-2.35135e-07
5.02153e-07
-2.54278e-07
9.19872e-08
-1.54293e-09
2.57137e-07
5.84046e-08
-2.14847e-08
1.78454e-07
2.77281e-10
-1.69348e-09
-2.02102e-08
-7.43601e-10
-5.63721e-10
-1.27138e-09
-1.97675e-08
8.11213e-10
6.73965e-09
-1.6111e-09
-1.54469e-08
9.66215e-10
1.3427e-09
4.02303e-09
-1.34767e-08
1.5073e-09
1.18934e-09
-3.88647e-09
-2.19429e-08
-7.95452e-09
-1.73806e-08
4.03579e-09
-4.4318e-08
2.0882e-09
1.90484e-09
-3.86828e-09
-3.22649e-08
-8.87004e-09
-1.85587e-08
4.43156e-10
-1.92262e-08
1.19786e-09
1.49319e-10
7.59696e-10
-2.09321e-08
1.26904e-09
1.94506e-09
-1.88617e-10
-1.88575e-08
1.95265e-09
6.44289e-09
-1.3077e-09
-2.15122e-08
1.30581e-09
-3.74437e-10
-3.29712e-08
5.47436e-10
7.13398e-10
1.01286e-08
-1.55438e-08
-1.80358e-08
-2.43647e-08
-5.52458e-09
-1.42206e-08
-1.51193e-08
4.30322e-10
-1.40479e-08
-5.92215e-09
-7.29842e-09
-1.1911e-08
-1.65791e-08
-1.63547e-08
-2.24771e-08
-2.6953e-08
-1.77123e-08
1.46664e-08
-4.10491e-08
-1.61862e-08
-2.38369e-08
9.54453e-09
-2.88863e-08
-1.87923e-08
-6.94711e-10
-1.90385e-08
-1.67354e-08
8.27955e-09
-1.88034e-08
-6.9898e-09
-5.34643e-09
-4.94377e-09
-1.5827e-08
-1.2258e-08
-1.86222e-08
-2.01032e-08
-2.01281e-08
-3.41207e-08
-2.36097e-08
-2.08163e-08
6.83057e-09
1.87646e-09
-1.23233e-08
-1.15138e-08
-6.54359e-09
-8.60718e-09
-9.1099e-09
-1.55727e-08
-9.86311e-09
-3.79669e-09
-2.29747e-08
-1.05435e-08
-1.05487e-08
-2.57039e-08
-3.62766e-08
-1.58998e-08
1.50064e-08
-3.13879e-08
-3.91629e-08
-1.33395e-08
-7.31403e-09
-2.18414e-08
-1.24695e-08
4.75345e-10
-8.74195e-09
-1.10529e-08
-1.21155e-08
-2.4043e-08
-2.45184e-08
-1.39238e-08
-3.84654e-08
-2.84973e-08
-1.91247e-08
2.55057e-08
-2.70921e-08
-3.68356e-08
-2.46785e-08
2.13464e-08
-2.69686e-08
-2.0527e-08
-2.22681e-09
-2.54354e-08
-1.4701e-08
1.12778e-08
-1.24239e-08
-9.01453e-09
-1.33497e-08
-9.15815e-09
-1.93906e-08
-1.33677e-08
-3.20595e-08
-3.41497e-08
-1.54103e-08
-3.92178e-08
-3.58676e-08
-2.33267e-08
1.14864e-07
-1.03323e-07
-1.41014e-07
4.43658e-07
2.11025e-07
9.77033e-08
-7.98396e-08
-5.36343e-07
2.38599e-07
-3.36636e-07
6.80699e-07
-9.79182e-10
-5.12029e-07
-5.32586e-07
3.47956e-07
-6.43428e-07
-8.25116e-07
1.97325e-07
8.46418e-08
-2.102e-07
4.43736e-07
-1.00951e-08
-2.15106e-07
-7.41571e-07
1.95719e-07
-6.35138e-07
8.39315e-07
-2.91734e-08
-4.84331e-07
-5.67877e-07
3.07622e-07
-5.68479e-07
-7.33002e-07
7.21979e-07
-2.0627e-09
-3.02725e-07
-2.65913e-07
1.62878e-07
-5.39056e-07
-2.76296e-07
1.49778e-07
-2.88417e-07
8.40377e-07
1.23488e-09
-4.66716e-07
-4.97737e-07
3.78613e-07
-6.42809e-07
-8.39224e-07
3.21333e-07
1.62883e-07
-4.07992e-07
9.96715e-08
2.08803e-07
-4.8329e-07
-3.14497e-07
1.76339e-07
-2.15877e-07
-1.82985e-07
-8.5049e-08
1.93449e-07
-3.10026e-07
6.52236e-07
5.0728e-08
-3.5569e-10
-1.80315e-09
-5.61811e-08
1.91448e-09
1.16197e-09
-4.04618e-08
2.71436e-10
-3.03428e-09
-2.32007e-08
-1.25209e-09
5.31853e-09
-1.95285e-08
-2.19297e-09
-3.44109e-09
-2.26467e-08
-3.50815e-09
-4.63652e-09
3.33416e-10
-2.2662e-08
-1.17221e-09
2.42223e-09
-2.39778e-08
-6.02031e-10
-4.14497e-09
-4.13226e-08
-9.11995e-10
5.39332e-09
-6.15532e-08
-2.18111e-09
-3.88349e-09
-7.82059e-08
-3.57889e-09
-4.52574e-09
3.02125e-09
-6.98683e-08
-1.60586e-09
-8.76707e-10
-5.10512e-08
-6.95604e-10
-2.26451e-09
-3.57942e-08
-1.1354e-09
5.35263e-09
-3.12576e-08
-2.2126e-09
-3.54432e-09
-3.337e-08
-3.59013e-09
-4.79627e-09
1.41983e-09
-3.02615e-08
-2.04771e-09
4.09305e-10
-2.5231e-08
-2.31299e-09
-1.00251e-09
-3.44128e-08
-1.61843e-09
-3.39581e-09
-5.50895e-08
7.06384e-10
-7.70322e-08
5.93159e-09
2.76925e-09
1.73342e-08
-2.26638e-08
-5.02742e-08
-2.07293e-08
1.59732e-08
-3.40999e-08
-1.16449e-08
5.70415e-09
-2.09063e-08
-8.81846e-09
-3.00787e-09
-1.894e-08
-6.27121e-09
9.79583e-10
-2.1095e-08
-3.34341e-09
-3.72016e-09
-6.6885e-09
-2.10154e-08
-6.05241e-09
-1.3926e-08
-2.47205e-08
-1.03015e-08
-2.15242e-08
-3.74172e-08
-1.07655e-08
-1.71136e-08
-5.29108e-08
-1.07923e-08
8.59984e-09
-6.42842e-08
-1.03058e-08
-1.55024e-08
2.06329e-08
-5.486e-08
-8.18076e-09
1.44906e-08
-3.82147e-08
-8.94509e-09
5.22573e-09
-2.8486e-08
-8.97805e-09
-1.38902e-09
-2.5779e-08
-6.72359e-09
3.00868e-09
-2.77488e-08
-4.28589e-09
-3.59207e-09
2.57545e-10
-2.50388e-08
-4.36911e-09
-9.22547e-09
-2.34186e-08
-8.80294e-09
-2.15958e-08
-3.35895e-08
-1.30311e-08
-2.39778e-08
-5.03396e-08
-1.36049e-08
-6.74398e-08
-9.67153e-09
-1.23262e-08
3.37209e-08
-3.54188e-08
-2.89286e-08
-2.94187e-08
2.81141e-08
-2.04066e-08
-1.47392e-08
9.87807e-09
-1.41481e-08
-1.17346e-08
-4.68627e-09
-1.2511e-08
-7.72375e-09
1.55513e-09
-1.28177e-08
-2.72737e-09
-4.35206e-09
-1.07627e-08
-1.56547e-08
-9.52651e-09
-2.71738e-08
-1.88711e-08
-1.47164e-08
-3.55372e-08
-2.28062e-08
-1.54945e-08
-2.83344e-08
-2.64407e-08
-1.3064e-08
1.82668e-08
-2.88638e-08
-1.16961e-08
-1.62534e-08
3.46657e-08
-2.64727e-08
-6.63888e-09
2.46508e-08
-1.89319e-08
-1.06555e-08
7.93739e-09
-1.52215e-08
-1.1223e-08
-1.70693e-09
-1.35115e-08
-8.00366e-09
6.41936e-09
-1.43708e-08
-4.09794e-09
-3.05518e-09
-2.12185e-09
-1.5399e-08
-5.11381e-09
-1.91527e-08
-1.72553e-08
-1.41587e-08
-3.74665e-08
-2.2829e-08
-2.06377e-08
-3.704e-08
-2.9168e-08
-1.87121e-08
-3.19566e-08
-1.51998e-08
-1.38454e-08
7.42909e-09
2.23077e-09
-1.8244e-08
-1.9598e-08
-1.45229e-08
-1.11029e-08
-1.87081e-08
-1.02769e-08
-2.56577e-08
-1.18273e-08
-2.88094e-08
-3.88487e-08
1.60631e-08
-3.97443e-08
-4.35653e-08
-5.42115e-09
-2.02021e-08
-2.73932e-09
-6.56518e-09
-1.21965e-08
-3.0189e-08
-2.67342e-08
-4.09342e-08
-2.90244e-08
2.95305e-08
-2.80818e-08
-3.78907e-08
2.87755e-08
-2.46796e-08
3.51646e-10
-2.49539e-08
9.9119e-09
-1.14442e-08
-9.56622e-09
-1.07437e-08
-2.22367e-08
-3.82222e-08
-3.98154e-08
-4.30101e-08
-3.91202e-08
4.19116e-08
-3.73103e-08
-2.68837e-08
3.42204e-08
-9.11967e-09
1.27117e-08
-9.35855e-09
-2.76767e-09
-6.23833e-09
-1.70635e-09
1.5714e-09
-3.52976e-09
-1.26013e-08
-7.97225e-09
-3.17455e-08
-1.47317e-08
-3.89486e-08
-1.54673e-08
-3.2429e-08
-1.09548e-08
2.16578e-08
-8.62573e-09
-5.52536e-09
4.20326e-08
1.54247e-09
2.81237e-08
-3.73988e-09
1.03706e-08
-7.84574e-09
-4.82098e-10
-6.21507e-09
5.09604e-09
-7.22827e-10
-1.35275e-09
-4.39453e-09
-2.72036e-09
-2.41707e-08
-1.46526e-08
-4.37972e-08
-1.99414e-08
-4.16565e-08
-1.69758e-08
-1.63605e-08
-9.75468e-09
-1.98753e-06
-4.0138e-06
1.46869e-06
-4.25422e-07
1.47842e-08
1.08105e-07
1.38656e-08
-5.72092e-07
7.72402e-08
5.95754e-07
-3.69549e-07
-4.22351e-07
-3.44355e-08
-6.53475e-08
-1.26106e-08
3.54554e-08
-4.28857e-08
9.33621e-08
-7.17168e-08
2.24015e-08
-3.65708e-08
-6.80738e-07
4.90378e-08
5.76657e-07
-3.82293e-07
-3.14366e-07
-8.41662e-08
-1.37777e-07
-1.47897e-08
-1.71896e-09
-6.84564e-08
2.47835e-07
-1.49429e-07
-2.89923e-08
-5.27078e-08
-6.9431e-07
6.69117e-08
6.32687e-07
-3.65164e-07
-3.80403e-07
-3.22027e-08
-9.47689e-08
2.0449e-08
-2.49767e-08
-1.07224e-09
-1.31048e-07
-3.83581e-08
2.1063e-07
-2.12558e-07
2.10104e-07
-2.07361e-07
9.30091e-07
-1.23504e-07
-3.02196e-06
1.14607e-06
-1.40639e-06
-1.54587e-08
-1.97003e-08
-9.11381e-08
2.37403e-10
-7.72682e-08
9.7135e-10
-5.0445e-08
-3.55797e-09
-3.25594e-08
3.90381e-09
-2.29918e-08
-1.95953e-09
-2.67016e-08
-3.77237e-10
-2.3571e-08
-6.2661e-11
-2.50311e-08
1.24786e-10
-2.52067e-08
1.26693e-09
-3.44792e-08
-3.70766e-09
-5.07008e-08
3.5678e-09
-6.84318e-08
-1.66419e-09
-8.54114e-08
-4.82921e-10
-8.10981e-08
-3.21443e-10
-8.92955e-08
7.13882e-10
-7.50002e-08
1.17414e-09
-5.79624e-08
-3.82319e-09
-4.37689e-08
3.89058e-09
-3.47792e-08
-1.87526e-09
-3.66207e-08
-3.899e-10
-3.2063e-08
3.404e-11
-3.38736e-08
-9.3606e-10
-3.06054e-08
9.13393e-10
-3.31403e-08
-3.8919e-10
-4.66379e-08
1.02433e-08
-6.72441e-08
-1.44788e-08
-9.01842e-08
-8.91395e-08
1.24112e-08
-1.81772e-08
-6.97946e-08
2.53513e-08
-5.94477e-08
1.90768e-08
-3.63377e-08
8.26483e-09
-2.32403e-08
1.58139e-09
-1.9297e-08
7.07035e-10
-2.26398e-08
1.18425e-09
-2.28356e-08
-4.19768e-09
-2.19087e-08
-8.53106e-09
-2.19371e-08
-1.57226e-08
-2.83313e-08
-2.04415e-08
-4.09903e-08
-1.62994e-08
-5.54845e-08
9.1127e-10
-6.66706e-08
4.23903e-10
-6.27085e-08
1.40201e-08
-6.53448e-08
1.96485e-08
-5.15184e-08
1.52966e-08
-3.8892e-08
7.00538e-09
-3.02128e-08
2.74071e-09
-2.67018e-08
2.46808e-09
-2.81181e-08
1.44347e-09
-2.74143e-08
3.61722e-10
-2.72508e-08
-4.90865e-09
-2.40293e-08
-1.34359e-08
-2.79824e-08
-2.16296e-08
-4.02625e-08
-2.19676e-08
-5.63649e-08
-1.73543e-08
-6.58004e-08
-6.46209e-08
2.2283e-08
-1.19469e-08
-3.0502e-08
4.63045e-08
-2.39228e-08
3.20183e-08
-1.51987e-08
1.43668e-08
-1.11322e-08
2.21227e-09
-1.01786e-08
4.9214e-11
-8.56233e-09
2.64854e-10
-7.75054e-09
-3.69267e-09
-1.0952e-08
-1.63346e-08
-1.57758e-08
-2.85141e-08
-1.86788e-08
-3.29702e-08
-2.1959e-08
-2.74407e-08
-2.3134e-08
5.1374e-10
-2.34811e-08
2.85249e-09
-2.24508e-08
2.64872e-08
-2.35986e-08
3.16494e-08
-1.95763e-08
2.42867e-08
-1.55097e-08
1.1437e-08
-1.26538e-08
2.12486e-09
-1.06365e-08
2.70136e-09
-1.04876e-08
9.91454e-10
-9.96687e-09
1.23749e-09
-1.21869e-08
-9.69609e-09
-1.38543e-08
-2.55808e-08
-1.74748e-08
-3.63091e-08
-2.23913e-08
-3.14942e-08
-2.52384e-08
-1.54266e-08
-2.39905e-08
-1.82367e-08
2.9346e-08
-2.80569e-10
5.57275e-08
3.39259e-08
1.71066e-08
3.80753e-09
-2.71567e-09
-4.94859e-09
-5.87132e-09
-2.00878e-08
-3.27263e-08
-3.50588e-08
-2.9677e-08
-4.59401e-09
2.7243e-09
3.30095e-08
3.24016e-08
2.36679e-08
1.27889e-08
4.42956e-09
8.35832e-10
-1.72056e-09
-5.19918e-10
-1.19613e-08
-2.98567e-08
-4.02704e-08
-3.04809e-08
-6.42574e-09
-1.29238e-07
-3.253e-07
3.42069e-07
-2.6006e-06
8.47927e-07
-2.46494e-06
8.00527e-07
-9.54217e-07
1.0388e-09
7.02063e-10
-1.73455e-08
-1.61922e-08
)
;

boundaryField
{
    top_fluid_surface
    {
        type            calculated;
        value           nonuniform List<scalar> 
64
(
-1.69097e-07
-5.46401e-07
-3.95946e-07
-4.01189e-07
2.46262e-06
-6.76787e-07
2.89297e-06
-2.5486e-07
-5.59802e-07
-6.19703e-07
-4.30832e-07
2.59108e-07
-4.01447e-07
2.44877e-07
5.4011e-07
-5.36164e-07
1.37803e-06
1.71364e-07
-2.81759e-07
6.79144e-08
-5.00407e-07
1.67962e-06
-1.55079e-07
-3.07425e-07
2.1519e-07
-3.19167e-07
1.56138e-06
2.8723e-07
1.6133e-07
3.37521e-07
1.61078e-07
-5.5339e-07
3.78134e-06
-2.06109e-06
-1.76352e-07
4.4687e-07
-1.13977e-06
-1.633e-07
-4.65332e-07
-2.94369e-07
-3.58211e-07
-2.04732e-07
3.0803e-07
-1.01419e-06
2.48701e-08
-2.60779e-07
6.50298e-08
-2.38886e-07
-1.68285e-07
3.047e-07
-1.10621e-06
-5.97195e-08
-4.22483e-07
-1.45729e-07
-2.16353e-07
-6.04847e-07
-5.63707e-07
-1.26807e-06
2.29057e-06
-4.40686e-07
7.7896e-07
2.59518e-06
2.51904e-06
-3.69725e-06
)
;
    }
    bottom_fluid_surface
    {
        type            calculated;
        value           uniform 0;
    }
    lateral_surface_1
    {
        type            calculated;
        value           uniform 0;
    }
    lateral_surface_2
    {
        type            calculated;
        value           uniform 0;
    }
    lateral_surface_3
    {
        type            calculated;
        value           uniform 0;
    }
    lateral_surface_4
    {
        type            calculated;
        value           uniform 0;
    }
}


// ************************************************************************* //
