/*--------------------------------*- C++ -*----------------------------------*\
| =========                 |                                                 |
| \\      /  F ield         | OpenFOAM: The Open Source CFD Toolbox           |
|  \\    /   O peration     | Version:  v1612+                                |
|   \\  /    A nd           | Web:      www.OpenFOAM.com                      |
|    \\/     M anipulation  |                                                 |
\*---------------------------------------------------------------------------*/
FoamFile
{
    version     2.0;
    format      ascii;
    class       volVectorField;
    location    "0.005";
    object      U;
}
// * * * * * * * * * * * * * * * * * * * * * * * * * * * * * * * * * * * * * //

dimensions      [0 1 -1 0 0 0 0];

internalField   nonuniform List<vector> 
320
(
(7.2807e-09 6.65626e-09 1.51572e-08)
(-2.26397e-09 -1.859e-11 1.37591e-08)
(2.0227e-09 -6.18452e-09 1.60976e-08)
(-9.58469e-09 -1.5215e-08 2.09208e-08)
(-9.89244e-09 7.62905e-08 -1.18551e-07)
(2.65259e-08 1.37276e-07 -6.00043e-07)
(-4.07235e-08 -3.96099e-08 -2.27818e-07)
(-2.21568e-07 1.0756e-07 -2.2278e-07)
(-1.00345e-07 -1.52542e-07 -2.99406e-07)
(-4.792e-08 -4.31066e-08 -3.32334e-07)
(-1.34058e-08 -1.49689e-07 -2.35951e-07)
(1.76873e-07 -1.20301e-07 -3.3856e-07)
(-1.00018e-07 -4.4877e-08 -2.20624e-07)
(1.44515e-07 -3.66478e-08 -3.59183e-07)
(1.11008e-07 2.94346e-08 -3.61185e-07)
(-1.10026e-07 7.15126e-09 5.55592e-08)
(6.65502e-10 1.60628e-10 1.80847e-08)
(8.27461e-11 -2.43626e-10 1.47556e-08)
(-5.14845e-10 -8.03892e-11 1.45906e-08)
(3.03159e-10 -3.59713e-11 1.45338e-08)
(2.50162e-10 2.62117e-10 2.11472e-08)
(7.03974e-11 -8.0774e-11 3.11725e-08)
(7.1849e-12 3.98538e-10 2.54764e-08)
(-1.61562e-10 3.66522e-10 1.83152e-08)
(2.82697e-10 -1.02724e-10 1.93599e-08)
(-4.76732e-10 -1.03904e-10 1.68363e-08)
(-7.47671e-11 3.85305e-10 1.74019e-08)
(3.69565e-10 2.35734e-10 2.70834e-08)
(1.23178e-08 1.77296e-08 2.72315e-08)
(3.52064e-09 1.1347e-08 2.19862e-08)
(-7.45516e-09 5.84458e-09 2.17534e-08)
(-1.22503e-08 -6.44907e-09 2.18667e-08)
(-1.5236e-08 -1.67913e-08 3.31096e-08)
(-1.52572e-08 -2.36411e-08 5.21386e-08)
(-1.28707e-08 -1.9252e-08 3.95561e-08)
(-5.93969e-09 -1.49323e-08 2.82237e-08)
(6.22345e-09 -8.18528e-09 2.91035e-08)
(1.07335e-08 -1.99462e-09 2.46483e-08)
(1.45766e-08 1.02765e-08 2.7723e-08)
(1.9928e-08 2.10366e-08 4.39978e-08)
(1.33785e-08 1.06858e-08 6.61232e-09)
(-6.56205e-09 5.86628e-10 9.44755e-09)
(3.52893e-09 -1.26641e-08 1.04594e-08)
(-1.65171e-08 -2.54771e-08 1.36078e-08)
(2.26772e-08 3.19903e-08 1.58646e-08)
(5.56082e-09 1.80406e-08 1.30956e-08)
(-1.12726e-08 7.90285e-09 1.30367e-08)
(-2.08055e-08 -1.13921e-08 1.47239e-08)
(-2.77742e-08 -3.00098e-08 2.23914e-08)
(-2.73767e-08 -3.93451e-08 3.26267e-08)
(-2.39078e-08 -3.23416e-08 2.39018e-08)
(-1.06141e-08 -2.44367e-08 1.67115e-08)
(9.44322e-09 -1.33789e-08 1.60993e-08)
(1.77087e-08 -1.48445e-09 1.43847e-08)
(2.84985e-08 1.97348e-08 1.81281e-08)
(3.6114e-08 3.62335e-08 2.83272e-08)
(1.67997e-07 -5.52932e-08 -1.18297e-07)
(1.58048e-07 -1.29634e-07 -5.15382e-09)
(-5.08775e-08 5.4093e-08 -1.7028e-07)
(-1.54498e-07 5.27552e-08 -3.42754e-07)
(-1.05067e-07 5.29668e-08 -1.3171e-07)
(-1.64808e-08 7.02064e-08 -4.44557e-08)
(-8.81311e-09 1.0417e-07 -1.45522e-07)
(-9.19486e-08 2.57009e-08 -4.34918e-07)
(-2.35387e-08 -1.58661e-07 -2.58416e-07)
(-9.56883e-08 -8.6055e-08 -6.85855e-09)
(-1.09318e-07 2.65578e-08 -1.75524e-07)
(-7.33004e-08 -8.68043e-08 -5.33952e-07)
(1.9654e-08 6.43573e-08 -2.01153e-07)
(1.20092e-07 -4.717e-08 -2.11562e-07)
(5.08285e-08 -6.74465e-08 -1.18978e-07)
(2.40563e-08 -9.5877e-08 -1.55873e-07)
(1.05961e-07 -9.48874e-08 -2.87132e-07)
(-4.49405e-08 3.00389e-08 -2.05747e-07)
(1.66086e-08 1.33279e-07 1.41027e-07)
(-5.34339e-08 -7.55893e-08 1.17198e-07)
(-4.57003e-11 -1.07947e-09 3.84313e-08)
(-1.06034e-10 1.79897e-11 3.00898e-08)
(3.88507e-10 5.52781e-10 2.1619e-08)
(1.15969e-10 3.67146e-10 2.04179e-08)
(-2.32313e-10 -4.05137e-11 2.09959e-08)
(-2.11414e-10 -5.64362e-11 2.217e-08)
(-1.25582e-10 2.86306e-10 2.2438e-08)
(-2.17441e-10 8.71671e-11 3.00735e-08)
(-5.46602e-10 -2.69372e-10 4.06857e-08)
(-1.42658e-10 -2.59379e-10 4.8991e-08)
(-4.17748e-10 -4.80348e-10 4.47451e-08)
(4.76528e-11 -8.42254e-11 3.40402e-08)
(3.02757e-10 -3.85732e-10 2.65249e-08)
(-3.79547e-11 -3.70041e-10 2.49766e-08)
(1.50502e-10 -8.91115e-11 2.51742e-08)
(2.368e-10 -7.22556e-11 2.46386e-08)
(3.41169e-10 4.49566e-11 2.23019e-08)
(4.13849e-10 3.98123e-10 2.69021e-08)
(-4.60676e-10 1.89694e-10 3.81227e-08)
(-2.68113e-10 -8.00435e-10 5.06688e-08)
(2.0747e-08 2.36092e-08 6.37207e-08)
(1.69703e-08 1.7776e-08 4.69868e-08)
(9.62106e-09 1.16922e-08 3.20433e-08)
(4.68569e-10 7.72311e-09 2.98499e-08)
(-4.04391e-09 1.73974e-09 3.16698e-08)
(-8.68783e-09 -1.37181e-09 3.27439e-08)
(-1.28802e-08 -7.79939e-09 3.48677e-08)
(-1.42185e-08 -1.8222e-08 4.89452e-08)
(-1.42854e-08 -1.90761e-08 6.70032e-08)
(-9.21085e-09 -1.67183e-08 8.04478e-08)
(-1.50601e-08 -1.70368e-08 7.23738e-08)
(-1.82935e-08 -1.34111e-08 5.3661e-08)
(-9.04399e-09 -1.26199e-08 4.09008e-08)
(-1.23054e-09 -8.11196e-09 3.79245e-08)
(3.06664e-09 -3.49675e-09 3.92201e-08)
(6.08759e-09 -2.96823e-09 3.73842e-08)
(1.00805e-08 2.16866e-09 3.4283e-08)
(1.59894e-08 1.58508e-08 4.37304e-08)
(1.76602e-08 2.39e-08 6.29759e-08)
(1.80809e-08 1.712e-08 8.25794e-08)
(3.5547e-08 3.59621e-08 3.88973e-08)
(3.15714e-08 2.7092e-08 2.67684e-08)
(1.75254e-08 1.66463e-08 1.73887e-08)
(4.89396e-10 1.04559e-08 1.55286e-08)
(-5.35817e-09 1.96968e-09 1.68335e-08)
(-1.29004e-08 -3.2543e-09 1.77472e-08)
(-1.98972e-08 -1.5915e-08 2.10942e-08)
(-2.29622e-08 -3.20483e-08 2.98917e-08)
(-2.10206e-08 -3.1772e-08 3.95379e-08)
(-1.44356e-08 -2.30417e-08 4.66604e-08)
(-2.72045e-08 -2.27673e-08 4.04132e-08)
(-3.14254e-08 -1.89872e-08 2.82153e-08)
(-1.54338e-08 -1.84574e-08 2.17353e-08)
(-1.71861e-09 -1.20523e-08 1.95234e-08)
(3.64318e-09 -4.66733e-09 2.10452e-08)
(8.72969e-09 -5.00944e-09 1.99233e-08)
(1.64321e-08 6.39121e-09 1.96406e-08)
(2.61776e-08 2.90911e-08 2.73123e-08)
(2.79713e-08 3.90387e-08 3.8462e-08)
(2.56348e-08 2.68075e-08 4.79374e-08)
(1.59612e-08 1.20615e-08 3.68171e-09)
(-1.03755e-08 -5.3084e-10 5.61971e-09)
(2.79954e-09 -1.62837e-08 5.59324e-09)
(-2.15167e-08 -2.96692e-08 7.47651e-09)
(2.75494e-08 3.78857e-08 6.96895e-09)
(6.34855e-09 1.92882e-08 6.35905e-09)
(-1.21068e-08 6.64931e-09 6.18122e-09)
(-2.38969e-08 -1.58037e-08 7.49519e-09)
(-3.15198e-08 -3.46941e-08 1.05928e-08)
(-3.08934e-08 -4.16629e-08 1.21794e-08)
(-2.87858e-08 -3.38594e-08 9.81181e-09)
(-1.37422e-08 -2.62081e-08 7.30135e-09)
(9.43523e-09 -1.3324e-08 6.68379e-09)
(1.99147e-08 3.41594e-11 6.74712e-09)
(3.52766e-08 2.4219e-08 8.2024e-09)
(4.25253e-08 4.18059e-08 1.12313e-08)
(4.1916e-08 3.61482e-08 1.37748e-08)
(3.84789e-08 2.59641e-08 9.57712e-09)
(2.08608e-08 1.5144e-08 6.86734e-09)
(1.02385e-09 8.97894e-09 6.24166e-09)
(-3.35678e-09 -6.43426e-10 6.33289e-09)
(-1.23782e-08 -5.63251e-09 7.19325e-09)
(-2.07387e-08 -1.99439e-08 8.71109e-09)
(-2.26501e-08 -3.66657e-08 1.12221e-08)
(-2.04641e-08 -3.58449e-08 1.33285e-08)
(-1.50482e-08 -1.73469e-08 1.5295e-08)
(-3.35053e-08 -1.59511e-08 1.29106e-08)
(-3.69714e-08 -1.38263e-08 8.9943e-09)
(-1.77359e-08 -1.61034e-08 7.36464e-09)
(-1.92066e-09 -1.04597e-08 6.6922e-09)
(1.75146e-09 -2.60534e-09 7.16259e-09)
(7.48341e-09 -4.37281e-09 7.29336e-09)
(1.76579e-08 9.55763e-09 7.79922e-09)
(2.82105e-08 3.46722e-08 1.04598e-08)
(2.86281e-08 4.45251e-08 1.33803e-08)
(2.30669e-08 2.91608e-08 1.59461e-08)
(7.00308e-07 -1.3757e-07 -7.34985e-07)
(-5.59817e-08 -1.42475e-07 -1.07917e-06)
(-1.19279e-07 8.64073e-08 -2.30165e-07)
(-1.55863e-07 1.34852e-07 6.872e-09)
(-3.95968e-08 1.91393e-07 1.92098e-07)
(4.44644e-08 1.99511e-08 -3.19852e-08)
(-7.36063e-09 4.18617e-08 -1.17992e-07)
(1.45503e-08 -8.19004e-09 -5.3493e-09)
(-6.85173e-08 5.66444e-08 9.47093e-11)
(9.88439e-10 3.20922e-08 -8.83398e-08)
(-1.40595e-07 -1.67267e-07 1.00049e-08)
(-1.91979e-07 -4.68458e-08 2.37809e-07)
(-2.87806e-08 7.52301e-08 6.28411e-08)
(-3.0694e-08 2.94131e-08 -8.38508e-08)
(2.51337e-08 3.13268e-08 8.70488e-08)
(-4.71711e-08 -9.14087e-08 1.21466e-07)
(-5.1205e-08 -3.08201e-08 -6.48752e-08)
(1.37239e-07 -1.13504e-07 -1.71603e-08)
(3.17858e-08 -1.48405e-07 1.96596e-07)
(-6.04836e-08 -2.51987e-08 7.01217e-10)
(-6.82435e-09 -3.70927e-08 -1.4259e-07)
(-1.87187e-08 3.73702e-08 -1.01979e-08)
(9.7992e-08 1.02554e-08 4.02554e-08)
(8.74132e-08 -1.05644e-07 8.80126e-08)
(8.72349e-08 -5.99181e-08 7.78615e-09)
(-2.54351e-09 -1.3425e-09 -3.88456e-07)
(-4.73861e-08 6.2841e-07 -4.39825e-07)
(7.01458e-07 6.11273e-07 2.20347e-06)
(2.58228e-09 -7.14623e-10 5.53183e-08)
(-4.4886e-10 -8.18417e-10 5.07477e-08)
(-9.66745e-10 -3.11463e-10 3.59902e-08)
(-2.66411e-10 4.22936e-11 2.63937e-08)
(7.84494e-11 3.43454e-10 2.22609e-08)
(2.6562e-10 7.98133e-11 2.38567e-08)
(9.33491e-11 -1.54477e-10 2.22622e-08)
(-1.40942e-10 -1.09887e-10 2.43567e-08)
(2.39761e-11 2.63416e-11 2.32619e-08)
(-5.81638e-11 -4.19983e-11 2.74051e-08)
(-3.04328e-10 -1.58904e-10 3.52737e-08)
(-3.04235e-10 -5.99108e-12 4.54343e-08)
(-4.09476e-11 2.46429e-10 5.38603e-08)
(2.01572e-10 1.17265e-10 5.25246e-08)
(1.80174e-10 -1.25255e-10 5.7318e-08)
(-1.04756e-10 -2.05567e-10 4.82358e-08)
(-8.74308e-11 -4.38246e-10 3.88006e-08)
(1.24254e-10 -7.04835e-11 3.09994e-08)
(-1.39231e-11 -2.59744e-10 2.74246e-08)
(-2.787e-10 -9.45151e-11 2.80679e-08)
(-1.36451e-10 1.69458e-10 2.58165e-08)
(1.27522e-10 1.45459e-10 2.79924e-08)
(9.81193e-11 8.79443e-11 2.54233e-08)
(2.87722e-10 7.31456e-11 2.68107e-08)
(1.26308e-10 -4.1654e-10 3.34361e-08)
(-5.26941e-10 -4.46228e-10 4.47269e-08)
(-5.09613e-10 1.96348e-09 5.65657e-08)
(2.23697e-09 2.03196e-09 6.38953e-08)
(1.38478e-08 4.5119e-09 9.05838e-08)
(1.92721e-08 1.2174e-08 8.10394e-08)
(2.42348e-08 5.98681e-09 5.43055e-08)
(1.35735e-08 4.90948e-09 3.80797e-08)
(2.49733e-09 2.03438e-09 3.18422e-08)
(4.3174e-11 2.88072e-09 3.47541e-08)
(1.58723e-09 -2.0527e-09 3.25038e-08)
(-3.3462e-09 -1.00789e-09 3.49758e-08)
(-1.1604e-09 -2.99174e-09 3.44424e-08)
(-4.96613e-09 -1.19798e-08 4.16383e-08)
(-5.34078e-09 -1.81964e-08 5.58543e-08)
(-4.94057e-09 -1.86334e-08 7.26127e-08)
(-4.89805e-09 -7.01505e-09 8.66668e-08)
(4.76273e-09 1.36516e-09 8.34306e-08)
(-4.26363e-09 -8.29562e-09 8.97855e-08)
(-1.85645e-08 -3.58206e-09 7.44256e-08)
(-1.72876e-08 -4.79123e-09 5.84591e-08)
(-1.12388e-08 -4.58801e-09 4.62953e-08)
(-2.89974e-09 -2.5964e-09 4.07858e-08)
(-1.66862e-09 -2.91882e-09 4.19624e-08)
(-2.25828e-09 2.13885e-09 3.91929e-08)
(2.79939e-09 -3.55749e-10 4.14171e-08)
(8.82728e-10 -1.17141e-09 3.75964e-08)
(4.59621e-09 7.90717e-09 4.07392e-08)
(6.62124e-09 1.78563e-08 5.34867e-08)
(6.60166e-09 2.31281e-08 7.24298e-08)
(5.84943e-09 1.97968e-08 8.96236e-08)
(9.27842e-09 7.94089e-09 9.45169e-08)
(1.60598e-08 7.28978e-09 5.05028e-08)
(3.58295e-08 1.65003e-08 4.08662e-08)
(4.19929e-08 7.00728e-09 2.40528e-08)
(2.21969e-08 6.0787e-09 1.65474e-08)
(3.40405e-09 2.33577e-09 1.42926e-08)
(-3.95927e-10 3.16405e-09 1.5364e-08)
(2.34367e-09 -2.62648e-09 1.42084e-08)
(-3.44686e-09 -2.04851e-09 1.48415e-08)
(-1.67452e-09 -6.63618e-09 1.67271e-08)
(-6.82873e-09 -2.14539e-08 2.25824e-08)
(-7.21343e-09 -3.11333e-08 3.0823e-08)
(-5.91373e-09 -3.08185e-08 3.88054e-08)
(-6.25996e-09 -1.05715e-08 4.62505e-08)
(6.55652e-09 3.35349e-09 4.27768e-08)
(-8.82478e-09 -9.46299e-09 4.01664e-08)
(-3.14312e-08 -2.25735e-09 3.1541e-08)
(-2.82177e-08 -5.23632e-09 2.4317e-08)
(-1.7549e-08 -5.46501e-09 2.0195e-08)
(-4.34686e-09 -3.12107e-09 1.8447e-08)
(-1.87156e-09 -2.83676e-09 1.90319e-08)
(-2.90591e-09 2.39367e-09 1.81569e-08)
(2.32453e-09 -1.45107e-09 1.82082e-08)
(3.10357e-10 -5.90002e-10 1.74951e-08)
(6.74396e-09 1.59635e-08 2.19621e-08)
(9.88264e-09 3.12741e-08 3.03491e-08)
(8.92697e-09 3.56906e-08 3.9295e-08)
(6.53458e-09 2.40506e-08 4.38833e-08)
(6.17007e-09 6.92527e-09 3.64553e-08)
(9.43695e-09 7.07728e-09 1.57336e-08)
(4.57221e-08 1.41429e-08 1.14174e-08)
(4.85536e-08 3.27119e-09 5.84103e-09)
(2.33337e-08 4.06816e-09 4.8568e-09)
(3.6807e-09 7.98327e-10 4.70421e-09)
(1.27369e-10 1.41131e-09 4.58014e-09)
(2.7429e-09 -2.68582e-09 4.18092e-09)
(-1.35423e-09 -3.52658e-09 4.24026e-09)
(-1.40258e-10 -1.07326e-08 5.65899e-09)
(-6.45435e-09 -2.60757e-08 8.33672e-09)
(-6.27205e-09 -3.44194e-08 1.02807e-08)
(-4.20804e-09 -3.4061e-08 1.16228e-08)
(-4.48814e-09 -1.09865e-08 1.35232e-08)
(2.15237e-09 4.83889e-09 1.20378e-08)
(-1.54994e-08 -1.80162e-09 7.63367e-09)
(-3.44139e-08 5.29012e-09 5.36316e-09)
(-2.86336e-08 -8.92935e-10 4.65091e-09)
(-1.71088e-08 -3.04769e-09 4.94731e-09)
(-4.0628e-09 -1.52002e-09 5.09115e-09)
(-1.95878e-09 -9.05543e-10 5.23137e-09)
(-3.13334e-09 2.19021e-09 5.00394e-09)
(-3.75893e-11 -1.0175e-09 4.80048e-09)
(-1.5455e-09 2.58247e-09 5.43751e-09)
(6.91769e-09 2.07612e-08 7.97295e-09)
(9.65808e-09 3.51892e-08 1.02352e-08)
(7.43475e-09 3.66623e-08 1.18881e-08)
(1.79532e-09 1.69571e-08 1.12069e-08)
(-4.76902e-09 5.12939e-10 4.79455e-09)
(2.88173e-07 2.84581e-07 -2.42076e-07)
(-1.66778e-07 1.63791e-07 -6.39727e-08)
(1.24464e-07 -3.05914e-07 4.50283e-08)
(-1.50495e-07 -1.47947e-07 -2.85063e-07)
(-5.85395e-10 -4.48174e-10 1.24366e-08)
(1.4749e-10 -4.787e-10 1.04094e-08)
(-1.98504e-10 4.02421e-10 1.17131e-08)
(4.94949e-10 3.19928e-10 1.49381e-08)
)
;

boundaryField
{
    top_fluid_surface
    {
        type            pressureInletOutletVelocity;
        value           nonuniform List<vector> 
64
(
(0 0 -1.18551e-07)
(0 0 -6.00043e-07)
(0 0 -2.27818e-07)
(0 0 -2.2278e-07)
(-1.00345e-07 -1.52542e-07 -2.99406e-07)
(0 0 -3.32334e-07)
(-1.34058e-08 -1.49689e-07 -2.35951e-07)
(0 0 -3.3856e-07)
(0 0 -2.20624e-07)
(0 0 -3.59183e-07)
(0 0 -3.61185e-07)
(-1.10026e-07 7.15126e-09 5.55592e-08)
(0 0 -1.18297e-07)
(1.58048e-07 -1.29634e-07 -5.15382e-09)
(-5.08775e-08 5.4093e-08 -1.7028e-07)
(0 0 -3.42754e-07)
(-1.05067e-07 5.29668e-08 -1.3171e-07)
(-1.64808e-08 7.02064e-08 -4.44557e-08)
(0 0 -1.45522e-07)
(-9.19486e-08 2.57009e-08 -4.34918e-07)
(0 0 -2.58416e-07)
(-9.56883e-08 -8.6055e-08 -6.85855e-09)
(0 0 -1.75524e-07)
(0 0 -5.33952e-07)
(1.9654e-08 6.43573e-08 -2.01153e-07)
(0 0 -2.11562e-07)
(5.08285e-08 -6.74465e-08 -1.18978e-07)
(2.40563e-08 -9.5877e-08 -1.55873e-07)
(1.05961e-07 -9.48874e-08 -2.87132e-07)
(-4.49405e-08 3.00389e-08 -2.05747e-07)
(1.66086e-08 1.33279e-07 1.41027e-07)
(0 0 1.17198e-07)
(7.00308e-07 -1.3757e-07 -7.34985e-07)
(0 0 -1.07917e-06)
(0 0 -2.30165e-07)
(-1.55863e-07 1.34852e-07 6.872e-09)
(0 0 1.92098e-07)
(0 0 -3.19852e-08)
(0 0 -1.17992e-07)
(0 0 -5.3493e-09)
(0 0 9.47093e-11)
(0 0 -8.83398e-08)
(-1.40595e-07 -1.67267e-07 1.00049e-08)
(0 0 2.37809e-07)
(-2.87806e-08 7.52301e-08 6.28411e-08)
(0 0 -8.38508e-08)
(2.51337e-08 3.13268e-08 8.70488e-08)
(0 0 1.21466e-07)
(0 0 -6.48752e-08)
(1.37239e-07 -1.13504e-07 -1.71603e-08)
(0 0 1.96596e-07)
(0 0 7.01217e-10)
(0 0 -1.4259e-07)
(0 0 -1.01979e-08)
(0 0 4.02554e-08)
(0 0 8.80126e-08)
(0 0 7.78615e-09)
(0 0 -3.88456e-07)
(-4.73861e-08 6.2841e-07 -4.39825e-07)
(0 0 2.20347e-06)
(2.88173e-07 2.84581e-07 -2.42076e-07)
(-1.66778e-07 1.63791e-07 -6.39727e-08)
(1.24464e-07 -3.05914e-07 4.50283e-08)
(0 0 -2.85063e-07)
)
;
    }
    bottom_fluid_surface
    {
        type            noSlip;
    }
    lateral_surface_1
    {
        type            noSlip;
    }
    lateral_surface_2
    {
        type            noSlip;
    }
    lateral_surface_3
    {
        type            noSlip;
    }
    lateral_surface_4
    {
        type            noSlip;
    }
}


// ************************************************************************* //
